
                                 *****************
                                 * O   R   C   A *
                                 *****************

                                            #,                                       
                                            ###                                      
                                            ####                                     
                                            #####                                    
                                            ######                                   
                                           ########,                                 
                                     ,,################,,,,,                         
                               ,,#################################,,                 
                          ,,##########################################,,             
                       ,#########################################, ''#####,          
                    ,#############################################,,   '####,        
                  ,##################################################,,,,####,       
                ,###########''''           ''''###############################       
              ,#####''   ,,,,##########,,,,          '''####'''          '####       
            ,##' ,,,,###########################,,,                        '##       
           ' ,,###''''                  '''############,,,                           
         ,,##''                                '''############,,,,        ,,,,,,###''
      ,#''                                            '''#######################'''  
     '                                                          ''''####''''         
             ,#######,   #######,   ,#######,      ##                                
            ,#'     '#,  ##    ##  ,#'     '#,    #''#        ,####,    ,#,          
            ##       ##  ##   ,#'  ##            #'  '#       #'       ,# #          
            ##       ##  #######   ##           ,######,      #####,      #          
            '#,     ,#'  ##    ##  '#,     ,#' ,#      #,     #,   #      #          
             '#######'   ##     ##  '#######'  #'      '#     '####' #    #          



                #########################################################
                #                        -***-                          #
                #          Department of theory and spectroscopy        #
                #                                                       #
                #                      Frank Neese                      #
                #                                                       #
                #     Directorship, Architecture, Infrastructure        #
                #                    SHARK, DRIVERS                     #
                #        Core code/Algorithms in most modules           #
                #                                                       #
                #        Max Planck Institute fuer Kohlenforschung      #
                #                Kaiser Wilhelm Platz 1                 #
                #                 D-45470 Muelheim/Ruhr                 #
                #                      Germany                          #
                #                                                       #
                #                  All rights reserved                  #
                #                        -***-                          #
                #########################################################


                         Program Version 6.1.0  -  RELEASE   -
                                (GIT: $679e74b7b5$)
                          ($2025-06-10 18:02:51 +0200$)


 With contributions from (in alphabetic order):
[Max-Planck-Institut fuer Kohlenforschung]                               
  Daniel Aravena         : Magnetic Suceptibility                        
  Michael Atanasov       : Ab Initio Ligand Field Theory (pilot matlab implementation)
  Alexander A. Auer      : GIAO ZORA, VPT2 properties, NMR spectrum      
  Ute Becker             : All parallelization in ORCA, NUMFREQ, NUMCALC 
  Giovanni Bistoni       : ED, misc. LED, open-shell LED, HFLD           
  Dmytro Bykov           : pre 5.0 version of the SCF Hessian            
  Marcos Casanova-Páez   : Triplet and SCS-CIS(D). UHF-(DLPNO)-IP/EA/STEOM-CCSD. UHF-CVS-IP/STEOM-CCSD   
  Vijay G. Chilkuri      : MRCI spin determinant printing, contributions to CSF-ICE 
  Pauline Colinet        : FMM embedding                                 
  Dipayan Datta          : RHF DLPNO-CCSD density                        
  Achintya Kumar Dutta   : EOM-CC, STEOM-CC                              
  Nicolas Foglia         : Exact transition moments, OPA infrastructure, MCD improvements    
  Dmitry Ganyushin       : Spin-Orbit,Spin-Spin,Magnetic field MRCI      
  Miquel Garcia-Rates    : C-PCM and meta-GGA Hessian, CCSD/C-PCM, Gaussian charge scheme 
  Tiago L. C. Gouveia    : GS-ROHF, GS-ROCIS                             
  Yang Guo               : DLPNO-NEVPT2, F12-NEVPT2, CIM, IAO-localization        
  Andreas Hansen         : Spin unrestricted coupled pair/coupled cluster methods 
  Ingolf Harden          : AUTO-CI MPn and infrastructure                
  Benjamin Helmich-Paris : MC-RPA, TRAH-(SCF,CASSCF), AVAS, COSX integrals, SCF dyn. polar., MC-PDFT, srDFT 
  Lee Huntington         : MR-EOM, pCC                                   
  Robert Izsak           : Overlap fitted RIJCOSX, COSX-SCS-MP3, EOM     
  Riya Kayal             : Wick's Theorem for AUTO-CI, AUTO-CI UHF-CCSDT 
  Emily Kempfer          : AUTO-CI RHF CISDT and CCSDT, approximate NEVPT4
  Christian Kollmar      : KDIIS, OOCD, Brueckner-CCSD(T), CCSD density, CASPT2, CASPT2-K, improved NEVPT2 
  Axel Koslowski         : Symmetry handling                             
  Simone Kossmann        : meta-GGA functionals, TD-DFT gradient, OOMP2, (MP2 Hessian; deprecated post 5.0) 
  Lucas Lang             : DCDCAS, Hyperfine gauge corrections, ICE-SOC+SSC
  Marvin Lechner         : AUTO-CI (C++ implementation), FIC-MRCC        
  Spencer Leger          : CASSCF response                               
  Dagmar Lenk            : GEPOL surface, SMD, ORCA-2-JSON               
  Dimitrios Liakos       : Extrapolation schemes; Compound Job, Property file
  Dimitrios Manganas     : Further ROCIS development; embedding schemes. LFT, Crystal Embedding 
  Dimitrios Pantazis     : SARC Basis sets                               
  Anastasios Papadopoulos: AUTO-CI, single reference methods and gradients 
  Taras Petrenko         : pre 6.0 DFT Hessian and TD-DFT gradient,  ECA, NRVS 
  Petra Pikulova         : Analytic Raman intensities                    
  Peter Pinski           : DLPNO-MP2, DLPNO-MP2 Gradient                 
  Shashank Vittal Rao    : ES-AILFT, MagRelax                            
  Christoph Reimann      : Effective Core Potentials                     
  Marius Retegan         : Local ZFS, SOC                                
  Christoph Riplinger    : Optimizer, TS searches, QM/MM, DLPNO-CCSD(T), (RO)-DLPNO pert. Triples 
  Michael Roemelt        : Original ROCIS implementation, recursive CI coupling coefficients
  Masaaki Saitow         : Open-shell DLPNO-CCSD energy and density      
  Barbara Sandhoefer     : DKH picture change effects                    
  Yorick L. A. Schmerwitz: GMF and freeze-and-release deltaSCF, NEB S-IDPP initial path                    
  Kantharuban Sivalingam : CASSCF convergence/infrastructure, NEVPT2, NEVPT3, NEVPT4(SD), FIC-MRCI and CEPA variants
  Bernardo de Souza      : ESD, SOC TD-DFT                               
  Georgi L. Stoychev     : AutoAux, RI-MP2 NMR, DLPNO-MP2 response, X2C  
  Van Anh Tran           : RI-MP2 g-tensors                              
  Willem Van den Heuvel  : Paramagnetic NMR                              
  Zikuan Wang            : NOTCH, Electric field optimization            
  Frank Wennmohs         : Technical directorship and infrastructure     
  Hang Xu                : AUTO-CI-Response properties                   
                                                                         
[FACCTs GmbH]                                                            
  Markus Bursch, Nicolas Foglia, Miquel Garcia-Rates, Ingolf Harden, Hagen Neugebauer, Anastasios Papadopoulos, 
  Christoph Riplinger, Bernardo de Souza, Georgi L. Stoychev                                                    
                                                                 
  APM, various basis sets, CI-OPT, improved COSX, DLPNO-Multilevel,           
  DOCKER, DRACO, updates on ESD, Fragmentator, GOAT, IRC, LR-CPCM, L-BFGS, MBIS, meta-GGA TD-DFT gradient, ML-optimized integration grids, 
  MM, NACMEs, nearIR, NEB, NEB-TS, NL-DFT gradient (VV10), 2- and 3-layer-ONIOM, interface openCOSMO-RS, QMMM,   
  Crystal-QMMM, RESP, rigid body optimization, SF, symmetry and pop. for TD-DFT, various functionals, SOLVATOR                                   
                                                                         
[Other institutions]                                                     
  V. Asgeirsson          : NEB                                           
  Christoph Bannwarth    : sTDA-DFT, sTD-DFT, PBEh-3c, B97-3c, D3        
  Giovanni Bistoni       : ETS/NOCV, ADLD/ADEX, COVALED                  
  Martin Brehm           : Molecular dynamics                            
  Ronald Cardenas        : ETS/NOCV                                      
  Martina Colucci        : COVALED                                       
  Sebastian Ehlert       : rSCAN, r2SCAN, r2SCAN-3c, D4, dhf basis sets  
  Marvin Friede          : D4 for Fr, Ra, Ac-Lr                          
  Lars Goerigk           : TD-DFT with DH, B97 family of functionals     
  Stefan Grimme          : VdW corrections, initial TS optimization, DFT functionals, gCP, sTDA/sTD-DF 
  Waldemar Hujo          : DFT-NL                                        
  H. Jonsson             : NEB                                           
  Holger Kruse           : gCP                                           
  Marcel Mueller         : wB97X-3c, vDZP basis set                      
  Hagen Neugebauer       : wr2SCAN, Native XTB                           
  Gianluca Regni         : ADLD/ADEX                                     
  Tobias Risthaus        : pre 6.0 range-separated hybrid DFT and stability analysis
  Lukas Wittmann         : regularized MP2, r2SCAN double-hybrids, wr2SCAN        
                                                                         
We gratefully acknowledge several colleagues who have allowed us to      
interface, adapt or use parts of their codes:                            
  Ed Valeev, F. Pavosevic, A. Kumar             : LibInt (2-el integral package), F12 methods 
  Garnet Chan, S. Sharma, J. Yang, R. Olivares  : DMRG                   
  Ulf Ekstrom                                   : XCFun DFT Library      
  Mihaly Kallay                                 : mrcc  (arbitrary order and MRCC methods)
  Frank Weinhold                                : gennbo (NPA and NBO analysis)           
  Simon Mueller                                 : openCOSMO-RS                            
  Christopher J. Cramer and Donald G. Truhlar   : smd solvation model                     
  S Lehtola, MJT Oliveira, MAL Marques          : LibXC Library                           
  Liviu Ungur et al                             : ANISO software                          


 Your calculation uses the libint2 library for the computation of 2-el integrals
 For citations please refer to: http://libint.valeyev.net

 Your ORCA version has been built with support for libXC version: 7.0.0
 For citations please refer to: https://libxc.gitlab.io

 This ORCA versions uses:
   CBLAS   interface :  Fast vector & matrix operations
   LAPACKE interface :  Fast linear algebra routines
   SCALAPACK package :  Parallel linear algebra routines
   Shared memory     :  Shared parallel matrices


  ***********************************
  * Starting time: Thu Jul  3 15:28:07 2025
  * Host name:     MacBook-Air-3.local
  * Process ID:    49388
  * Working dir.:  /Users/blenl/Desktop/DFT/Nitrobenzene/HOMO_LUMO
  ***********************************

NOTE: MaxCore=16384 MB was set to SCF,MP2,MDCI,CIPSI,MRCI,RASCI and CIS
      => If you want to overwrite this, your respective input block should be placed after the MaxCore statement
Warning: RI is on but no J-basis has been assigned. Assigning Def2/J (nothing to worry about!)
================================================================================

----- Orbital basis set information -----
Your calculation utilizes the basis: def2-TZVP
   F. Weigend and R. Ahlrichs, Phys. Chem. Chem. Phys. 7, 3297 (2005).

----- AuxJ basis set information -----
Your calculation utilizes the auxiliary basis: def2/J
   H-Rn: F. Weigend, Phys. Chem. Chem. Phys. 8, 1057 (2006).
   Fr-Lr: K. Eichkorn, F. Weigend, O. Treutler, R. Ahlrichs; Theor. Chem. Acc. 97, 119 (1997).

================================================================================
                                        WARNINGS
                       Please study these warnings very carefully!
================================================================================


================================================================================
                                       INPUT FILE
================================================================================
NAME = HOMO_LUMO.inp
|  1> # avogadro generated ORCA file
|  2> # C6H5NO2 | Single Point | revPBE/def2-TZVP
|  3> # 
|  4> ! SP revPBE def2-TZVP 
|  5> 
|  6> %maxcore 16384
|  7> 
|  8> %pal
|  9>    nprocs 1
| 10> end
| 11> %output
| 12> Print[P_Basis] 2
| 13> Print[P_MOs] 1
| 14> end 
| 15> 
| 16> * xyz 0 1
| 17>    C     -3.082958    1.086937   -0.000083
| 18>    C     -3.059231   -0.312048   -0.000095
| 19>    C     -1.910543    1.850563   -0.000102
| 20>    C     -0.679123    1.187049   -0.000137
| 21>    C     -0.632560   -0.214569   -0.000146
| 22>    C     -1.819953   -0.960747   -0.000129
| 23>    H     -1.976857    2.937567   -0.000102
| 24>    H      0.245563    1.767016   -0.000160
| 25>    H      0.331713   -0.726862   -0.000170
| 26>    H     -1.782815   -2.051636   -0.000146
| 27>    H     -3.997043   -0.865661   -0.000088
| 28>    N     -4.402440    1.787920   -0.000059
| 29>    O     -4.393591    3.024226   -0.000087
| 30>    O     -5.421942    1.088482   -0.000088
| 31> *
| 32> 
| 33> 
| 34> 
| 35>                          ****END OF INPUT****
================================================================================

                       ****************************
                       * Single Point Calculation *
                       ****************************

---------------------------------
CARTESIAN COORDINATES (ANGSTROEM)
---------------------------------
  C     -3.082958    1.086937   -0.000083
  C     -3.059231   -0.312048   -0.000095
  C     -1.910543    1.850563   -0.000102
  C     -0.679123    1.187049   -0.000137
  C     -0.632560   -0.214569   -0.000146
  C     -1.819953   -0.960747   -0.000129
  H     -1.976857    2.937567   -0.000102
  H      0.245563    1.767016   -0.000160
  H      0.331713   -0.726862   -0.000170
  H     -1.782815   -2.051636   -0.000146
  H     -3.997043   -0.865661   -0.000088
  N     -4.402440    1.787920   -0.000059
  O     -4.393591    3.024226   -0.000087
  O     -5.421942    1.088482   -0.000088

----------------------------
CARTESIAN COORDINATES (A.U.)
----------------------------
  NO LB      ZA    FRAG     MASS         X           Y           Z
   0 C     6.0000    0    12.011   -5.825946    2.054013   -0.000157
   1 C     6.0000    0    12.011   -5.781109   -0.589685   -0.000180
   2 C     6.0000    0    12.011   -3.610403    3.497057   -0.000193
   3 C     6.0000    0    12.011   -1.283356    2.243198   -0.000259
   4 C     6.0000    0    12.011   -1.195365   -0.405477   -0.000276
   5 C     6.0000    0    12.011   -3.439213   -1.815549   -0.000244
   6 H     1.0000    0     1.008   -3.735718    5.551197   -0.000193
   7 H     1.0000    0     1.008    0.464047    3.339176   -0.000302
   8 H     1.0000    0     1.008    0.626847   -1.373570   -0.000321
   9 H     1.0000    0     1.008   -3.369032   -3.877030   -0.000276
  10 H     1.0000    0     1.008   -7.553317   -1.635862   -0.000166
  11 N     7.0000    0    14.007   -8.319406    3.378679   -0.000111
  12 O     8.0000    0    15.999   -8.302684    5.714959   -0.000164
  13 O     8.0000    0    15.999  -10.245985    2.056933   -0.000166

--------------------------------
INTERNAL COORDINATES (ANGSTROEM)
--------------------------------
 C      0   0   0     0.000000000000     0.00000000     0.00000000
 C      1   0   0     1.399186192363     0.00000000     0.00000000
 C      1   2   0     1.399171755169   122.10564792     0.00000000
 C      3   1   2     1.398801646346   118.60601479     0.00000000
 C      4   3   1     1.402391218945   120.21940238     0.00000000
 C      2   1   3     1.398792463177   118.60142209     0.00000000
 H      3   1   2     1.089024904496   119.58622801   179.99937346
 H      4   3   1     1.091515423718   119.58720273   179.99953003
 H      5   4   3     1.091909582774   119.88325589   180.00020373
 H      6   2   1     1.091520976278   119.57958271   180.00043526
 H      2   1   3     1.089026492406   119.58272434   180.00052439
 N      1   2   3     1.494125133712   118.95140371   179.99955311
 O     12   1   2     1.236337668771   117.56965761   180.00199679
 O     12   1   2     1.236364770078   117.56784716     0.00000000

---------------------------
INTERNAL COORDINATES (A.U.)
---------------------------
 C      0   0   0     0.000000000000     0.00000000     0.00000000
 C      1   0   0     2.644078713929     0.00000000     0.00000000
 C      1   2   0     2.644051431587   122.10564792     0.00000000
 C      3   1   2     2.643352027273   118.60601479     0.00000000
 C      4   3   1     2.650135336422   120.21940238     0.00000000
 C      2   1   3     2.643334673598   118.60142209     0.00000000
 H      3   1   2     2.057958822517   119.58622801   179.99937346
 H      4   3   1     2.062665221778   119.58720273   179.99953003
 H      5   4   3     2.063410074447   119.88325589   180.00020373
 H      6   2   1     2.062675714595   119.57958271   180.00043526
 H      2   1   3     2.057961823232   119.58272434   180.00052439
 N      1   2   3     2.823487312524   118.95140371   179.99955311
 O     12   1   2     2.336339603027   117.56965761   180.00199679
 O     12   1   2     2.336390817075   117.56784716     0.00000000

---------------------
BASIS SET INFORMATION
---------------------
There are 4 groups of distinct atoms

 Group   1 Type C   : 11s6p2d1f contracted to 5s3p2d1f pattern {62111/411/11/1}
 Group   2 Type H   : 5s1p contracted to 3s1p pattern {311/1}
 Group   3 Type N   : 11s6p2d1f contracted to 5s3p2d1f pattern {62111/411/11/1}
 Group   4 Type O   : 11s6p2d1f contracted to 5s3p2d1f pattern {62111/411/11/1}

Atom   0C    basis set group =>   1
Atom   1C    basis set group =>   1
Atom   2C    basis set group =>   1
Atom   3C    basis set group =>   1
Atom   4C    basis set group =>   1
Atom   5C    basis set group =>   1
Atom   6H    basis set group =>   2
Atom   7H    basis set group =>   2
Atom   8H    basis set group =>   2
Atom   9H    basis set group =>   2
Atom  10H    basis set group =>   2
Atom  11N    basis set group =>   3
Atom  12O    basis set group =>   4
Atom  13O    basis set group =>   4

-------------------------
BASIS SET IN INPUT FORMAT
-------------------------

 # Basis set for element : H 
 NewGTO H 
 S 3 
   1      34.0613410000      0.0254393072
   2       5.1235746000      0.1900859489
   3       1.1646626000      0.8524411301
 S 1 
   1       0.3272304100      1.0000000000
 S 1 
   1       0.1030724100      1.0000000000
 P 1 
   1       0.8000000000      1.0000000000
  end;

 # Basis set for element : C 
 NewGTO C 
 S 6 
   1   13575.3496820000      0.0006064549
   2    2035.2333680000      0.0046979088
   3     463.2256235900      0.0243324776
   4     131.2001959800      0.0973999683
   5      42.8530158910      0.3019558425
   6      15.5841857660      0.6623360915
 S 2 
   1       6.2067138508      0.6559530854
   2       2.5764896527      0.3758563329
 S 1 
   1       0.5769633942      1.0000000000
 S 1 
   1       0.2297283136      1.0000000000
 S 1 
   1       0.0951644400      1.0000000000
 P 4 
   1      34.6972322440      0.0113272200
   2       7.9582622826      0.0761696592
   3       2.3780826883      0.3019225220
   4       0.8143320818      0.7278502735
 P 1 
   1       0.2888754725      1.0000000000
 P 1 
   1       0.1005682367      1.0000000000
 D 1 
   1       1.0970000000      1.0000000000
 D 1 
   1       0.3180000000      1.0000000000
 F 1 
   1       0.7610000000      1.0000000000
  end;

 # Basis set for element : N 
 NewGTO N 
 S 6 
   1   19730.8006470000      0.0005862639
   2    2957.8958745000      0.0045428821
   3     673.2213359500      0.0235584136
   4     190.6824949400      0.0947091933
   5      62.2954418980      0.2971978492
   6      22.6541611820      0.6691624689
 S 2 
   1       8.9791477428      0.6459668363
   2       3.6863002370      0.3870057440
 S 1 
   1       0.8466007680      1.0000000000
 S 1 
   1       0.3364713377      1.0000000000
 S 1 
   1       0.1364765367      1.0000000000
 P 4 
   1      49.2003805100      0.0114488252
   2      11.3467905370      0.0784223379
   3       3.4273972411      0.3081809474
   4       1.1785525134      0.7202719637
 P 1 
   1       0.4164220497      1.0000000000
 P 1 
   1       0.1426082601      1.0000000000
 D 1 
   1       1.6540000000      1.0000000000
 D 1 
   1       0.4690000000      1.0000000000
 F 1 
   1       1.0930000000      1.0000000000
  end;

 # Basis set for element : O 
 NewGTO O 
 S 6 
   1   27032.3826310000      0.0005722733
   2    4052.3871392000      0.0044353233
   3     922.3272271000      0.0230201076
   4     261.2407098900      0.0928224906
   5      85.3546413510      0.2937850002
   6      31.0350352450      0.6740160450
 S 2 
   1      12.2608607280      0.6383993702
   2       4.9987076005      0.3953458713
 S 1 
   1       1.1703108158      1.0000000000
 S 1 
   1       0.4647474099      1.0000000000
 S 1 
   1       0.1850453636      1.0000000000
 P 4 
   1      63.2749548010      0.0120183321
   2      14.6270493790      0.0830054217
   3       4.4501223456      0.3199174393
   4       1.5275799647      0.7071554292
 P 1 
   1       0.5293511794      1.0000000000
 P 1 
   1       0.1747842127      1.0000000000
 D 1 
   1       2.3140000000      1.0000000000
 D 1 
   1       0.6450000000      1.0000000000
 F 1 
   1       1.4280000000      1.0000000000
  end;

---------------------------------
AUXILIARY/J BASIS SET INFORMATION
---------------------------------
There are 4 groups of distinct atoms

 Group   1 Type C   : 12s5p4d2f1g contracted to 6s4p3d1f1g pattern {711111/2111/211/2/1}
 Group   2 Type H   : 5s2p1d contracted to 3s1p1d pattern {311/2/1}
 Group   3 Type N   : 12s5p4d2f1g contracted to 6s4p3d1f1g pattern {711111/2111/211/2/1}
 Group   4 Type O   : 12s5p4d2f1g contracted to 6s4p3d1f1g pattern {711111/2111/211/2/1}

Atom   0C    basis set group =>   1
Atom   1C    basis set group =>   1
Atom   2C    basis set group =>   1
Atom   3C    basis set group =>   1
Atom   4C    basis set group =>   1
Atom   5C    basis set group =>   1
Atom   6H    basis set group =>   2
Atom   7H    basis set group =>   2
Atom   8H    basis set group =>   2
Atom   9H    basis set group =>   2
Atom  10H    basis set group =>   2
Atom  11N    basis set group =>   3
Atom  12O    basis set group =>   4
Atom  13O    basis set group =>   4

-------------------------------------
AUXILIARY/J BASIS SET IN INPUT FORMAT
-------------------------------------

 # Auxiliary/J basis set for element : H 
 NewAuxJGTO H 
 S 3 
   1      15.6752927000      0.1007184237
   2       3.6063578000      0.3404257499
   3       1.2080016000      0.6491996172
 S 1 
   1       0.4726794000      1.0000000000
 S 1 
   1       0.2018100000      1.0000000000
 P 2 
   1       2.0281365000      0.5596620919
   2       0.5358730000      0.5596620919
 D 1 
   1       2.2165124000      1.0000000000
  end;

 # Auxiliary/J basis set for element : C 
 NewAuxJGTO C 
 S 7 
   1    1861.0916331000      0.0134602335
   2     642.9939764000      0.0299160374
   3     235.1105725000      0.1008649584
   4      90.7028894000      0.2370970548
   5      36.7794552000      0.3924037254
   6      15.6046273000      0.3195862154
   7       6.8907294000      0.0530104441
 S 1 
   1       3.1478850000     -1.0000000000
 S 1 
   1       1.4777287000      1.0000000000
 S 1 
   1       0.7076466000      1.0000000000
 S 1 
   1       0.3430122000      1.0000000000
 S 1 
   1       0.1669453000      1.0000000000
 P 2 
   1      13.5472892000     -0.6769313712
   2       5.4669419000     -0.3779500978
 P 1 
   1       2.1751721000      1.0000000000
 P 1 
   1       0.8582194000      1.0000000000
 P 1 
   1       0.3376720000      1.0000000000
 D 2 
   1       5.9287253000     -0.3533329857
   2       1.9809209000     -0.7456525731
 D 1 
   1       0.8055417000     -1.0000000000
 D 1 
   1       0.3531244000     -1.0000000000
 F 2 
   1       1.6755626000      0.6311076882
   2       0.5997536000      0.4968166032
 G 1 
   1       1.0024600000     -1.0000000000
  end;

 # Auxiliary/J basis set for element : N 
 NewAuxJGTO N 
 S 7 
   1    2542.9401785000      0.0128431329
   2    1029.5472946000      0.0206655120
   3     424.9053546000      0.0652200677
   4     178.4573708000      0.1617388940
   5      76.1362742000      0.3094256941
   6      32.9338653000      0.3918849307
   7      14.4155436000      0.1822470660
 S 1 
   1       6.3718891000     -1.0000000000
 S 1 
   1       2.8381742000      1.0000000000
 S 1 
   1       1.2711793000      1.0000000000
 S 1 
   1       0.5712407000      1.0000000000
 S 1 
   1       0.2569887000      1.0000000000
 P 2 
   1      17.8975990000     -1.0974070137
   2       6.5346319000      0.1380055963
 P 1 
   1       2.3523645000      1.0000000000
 P 1 
   1       0.8397377000      1.0000000000
 P 1 
   1       0.2989335000      1.0000000000
 D 2 
   1       7.6909870000      0.1770780943
   2       2.3044972000      0.8918319220
 D 1 
   1       0.8403987000      1.0000000000
 D 1 
   1       0.3303797000      1.0000000000
 F 2 
   1       2.3331076000      0.6223178877
   2       0.8446137000      0.5036714203
 G 1 
   1       1.4037700000     -1.0000000000
  end;

 # Auxiliary/J basis set for element : O 
 NewAuxJGTO O 
 S 7 
   1    2876.8216605000      0.0168151159
   2    1004.7443032000      0.0340137548
   3     369.7579954000      0.1194951309
   4     142.9442404000      0.2664627624
   5      57.8366425000      0.4202764046
   6      24.3864983000      0.2765077335
   7      10.6622662000      0.0057008815
 S 1 
   1       4.8070437000     -1.0000000000
 S 1 
   1       2.2210770000      1.0000000000
 S 1 
   1       1.0447795000      1.0000000000
 S 1 
   1       0.4968425000      1.0000000000
 S 1 
   1       0.2371384000      1.0000000000
 P 2 
   1      64.2613382000     -0.2731534179
   2      16.3006076000     -0.8168011598
 P 1 
   1       4.3550542000      1.0000000000
 P 1 
   1       1.2019554000      1.0000000000
 P 1 
   1       0.3354196000      1.0000000000
 D 2 
   1       9.2146611000     -0.4661230638
   2       2.8435251000     -0.6600908911
 D 1 
   1       0.9955759000     -1.0000000000
 D 1 
   1       0.3649441000     -1.0000000000
 F 2 
   1       2.6420115000      0.5931563945
   2       0.7345613000      0.5931563945
 G 1 
   1       1.3931000000     -1.0000000000
  end;

------------------------------------------------------------------------------
                             ORCA STARTUP CALCULATIONS
                           -- RI-GTO INTEGRALS CHOSEN --
------------------------------------------------------------------------------
------------------------------------------------------------------------------
                   ___                                                        
                  /   \      - P O W E R E D   B Y -                         
                 /     \                                                     
                 |  |  |   _    _      __       _____    __    __             
                 |  |  |  | |  | |    /  \     |  _  \  |  |  /  |          
                  \  \/   | |  | |   /    \    | | | |  |  | /  /          
                 / \  \   | |__| |  /  /\  \   | |_| |  |  |/  /          
                |  |  |   |  __  | /  /__\  \  |    /   |      \           
                |  |  |   | |  | | |   __   |  |    \   |  |\   \          
                \     /   | |  | | |  |  |  |  | |\  \  |  | \   \       
                 \___/    |_|  |_| |__|  |__|  |_| \__\ |__|  \__/        
                                                                              
                      - O R C A' S   B I G   F R I E N D -                    
                                      &                                       
                       - I N T E G R A L  F E E D E R -                       
                                                                              
 v1 FN, 2020, v2 2021, v3 2022-2024                                           
------------------------------------------------------------------------------


----------------------
SHARK INTEGRAL PACKAGE
----------------------

Number of atoms                             ...     14
Number of basis functions                   ...    309
Number of shells                            ...    119
Maximum angular momentum                    ...      3
Integral batch strategy                     ... SHARK/LIBINT Hybrid
RI-J (if used) integral strategy            ... SPLIT-RIJ (Revised 2003 algorithm where possible)
Printlevel                                  ...      1
Contraction scheme used                     ... SEGMENTED contraction
Prescreening option                         ... SCHWARTZ
   Thresh                                   ... 1.000e-10
   Tcut                                     ... 1.000e-11
   Tpresel                                  ... 1.000e-11 
Coulomb Range Separation                    ... NOT USED
Exchange Range Separation                   ... NOT USED
Multipole approximations                    ... NOT USED
Finite Nucleus Model                        ... NOT USED
CABS basis                                  ... NOT available
Auxiliary Coulomb fitting basis             ... AVAILABLE
   # of basis functions in Aux-J            ...    496
   # of shells in Aux-J                     ...    160
   Maximum angular momentum in Aux-J        ...      4
Auxiliary J/K fitting basis                 ... NOT available
Auxiliary Correlation fitting basis         ... NOT available
Auxiliary 'external' fitting basis          ... NOT available

Checking pre-screening integrals            ... done (  0.0 sec) Dimension = 119
   => SHARK Basis and OBASIS are compatible. Storing Pre-screening
Shell pair information
Shell pair cut-off parameter TPreSel        ...   1.0e-11
Total number of shell pairs                 ...      7140
Shell pairs after pre-screening             ...      6404
Total number of primitive shell pairs       ...     22368
Primitive shell pairs kept                  ...     14854
          la=0 lb=0:   1555 shell pairs
          la=1 lb=0:   1758 shell pairs
          la=1 lb=1:    506 shell pairs
          la=2 lb=0:    957 shell pairs
          la=2 lb=1:    543 shell pairs
          la=2 lb=2:    156 shell pairs
          la=3 lb=0:    471 shell pairs
          la=3 lb=1:    269 shell pairs
          la=3 lb=2:    148 shell pairs
          la=3 lb=3:     41 shell pairs

Checking whether 4 symmetric matrices of dimension 309 fit in memory
:Max Core in MB      =  16384.00
 MB in use           =      9.85
 MB left             =  16374.15
 MB needed           =      1.46
 Data fit in memory  = YES
Calculating RI/J V-Matrix + Cholesky decomp.... done (  0.0 sec)
Calculating Nuclear repulsion               ... done (  0.0 sec) ENN=    409.327040882753 Eh

Diagonalization of the overlap matrix:
Smallest eigenvalue                        ... 9.915e-06
Time for diagonalization                   ...    0.005 sec
Threshold for overlap eigenvalues          ... 1.000e-07
Number of eigenvalues below threshold      ... 0
Time for construction of square roots      ...    0.001 sec
Total time needed                          ...    0.007 sec

-------------------
DFT GRID GENERATION
-------------------

General Integration Accuracy     IntAcc      ... 4.388
Radial Grid Type                 RadialGrid  ... OptM3 with GC (2021)
Angular Grid (max. ang.)         AngularGrid ... 4 (Lebedev-302)
Angular grid pruning method      GridPruning ... 4 (adaptive)
Weight generation scheme         WeightScheme... mBecke (2022)
Basis function cutoff            BFCut       ... 1.0000e-10
Integration weight cutoff        WCut        ... 1.0000e-14
Partially contracted basis set               ... off
Rotationally invariant grid construction     ... off
Angular grids for H and He will be reduced by one unit

Total number of grid points                  ...    70393
Total number of batches                      ...     1105
Average number of points per batch           ...       63
Average number of grid points per atom       ...     5028
Grids setup in   0.3 sec
Initializing property integral containers    ... done (  0.0 sec)

SHARK setup successfully completed in   0.4 seconds

Maximum memory used throughout the entire STARTUP-calculation: 42.9 MB
-------------------------------------------------------------------------------
                                 ORCA GUESS
                   Start orbitals & Density for SCF / CASSCF
-------------------------------------------------------------------------------

------------
SCF SETTINGS
------------
Hamiltonian:
 Density Functional     Method          .... DFT(GTOs)
 Exchange Functional    Exchange        .... PBE
   PBE kappa parameter   XKappa         ....  1.245000
   PBE mue parameter    XMuePBE         ....  0.219520
 Correlation Functional Correlation     .... PBE
   PBE beta parameter  CBetaPBE         ....  0.066725
 LDA part of GGA corr.  LDAOpt          .... PW91-LDA
 Gradients option       PostSCFGGA      .... off
   NL short-range parameter             ....  3.700000
 RI-approximation to the Coulomb term is turned on
   Number of AuxJ basis functions       .... 496


General Settings:
 Integral files         IntName         .... HOMO_LUMO
 Hartree-Fock type      HFTyp           .... RHF
 Total Charge           Charge          ....    0
 Multiplicity           Mult            ....    1
 Number of Electrons    NEL             ....   64
 Basis Dimension        Dim             ....  309
 Nuclear Repulsion      ENuc            ....    409.3270408828 Eh

Convergence Acceleration:
 AO-DIIS                CNVDIIS         .... on
   Start iteration      DIISMaxIt       ....    12
   Startup error        DIISStart       ....  0.200000
   # of expansion vecs  DIISMaxEq       ....     5
   Bias factor          DIISBfac        ....   1.050
   Max. coefficient     DIISMaxC        ....  10.000
 MO-DIIS                CNVKDIIS        .... off
 Trust-Rad. Augm. Hess. CNVTRAH         .... auto
   Auto Start mean grad. ratio tolernc. ....  1.125000
   Auto Start start iteration           ....    50
   Auto Start num. interpolation iter.  ....    10
   Max. Number of Micro iterations      ....    24
   Max. Number of Macro iterations      .... Maxiter - #DIIS iter
   Number of Davidson start vectors     ....     2
   Converg. threshold    (grad. norm)   ....   5.000e-05
   Grad. Scal. Fac. for Micro threshold ....   0.100
   Minimum threshold for Micro iter.    ....   1.000e-02
   NR start threshold (gradient norm)   ....   1.000e-04
   Initial trust radius                 ....   0.400
   Minimum AH scaling param. (alpha)    ....   1.000
   Maximum AH scaling param. (alpha)    .... 1000.000
   Quad. conv. algorithm                .... NR
   White noise on init. David. guess    .... on
   Maximum white noise                  ....   0.010
   Pseudo random numbers                .... off
   Inactive MOs                         .... canonical
   Orbital update algorithm             .... Taylor
   Preconditioner                       .... Diag
   Full preconditioner red. dimension   ....   250
 SOSCF                 CNVSOSCF           .... on
   Start iteration     SOSCFMaxIt         ....   150
   Startup grad/error  SOSCFStart         ....  0.003300
   Hessian update      SOSCFHessUp        .... L-BFGS
   Autom. constraints  SOSCFAutoConstrain .... off
 Level Shifting         CNVShift        .... on
   Level shift para.    LevelShift      ....    0.2500
   Turn off err/grad.   ShiftErr        ....    0.0010
 Zerner damping         CNVZerner       .... off
 Static damping         CNVDamp         .... on
   Fraction old density DampFac         ....    0.7000
   Max. Damping (<1)    DampMax         ....    0.9800
   Min. Damping (>=0)   DampMin         ....    0.0000
   Turn off err/grad.   DampErr         ....    0.1000

SCF Procedure:
 Maximum # iterations   MaxIter         ....   125
 SCF integral mode      SCFMode         .... Direct
   Integral package                     .... SHARK and LIBINT hybrid scheme
 Reset frequency        DirectResetFreq ....    20
 Integral Threshold     Thresh          ....  1.000e-10 Eh
 Primitive CutOff       TCut            ....  1.000e-11 Eh

Convergence Tolerance:
 Convergence Check Mode ConvCheckMode   .... Total+1el-Energy
 Convergence forced     ConvForced      .... 0
 Energy Change          TolE            ....  1.000e-06 Eh
 1-El. energy change                    ....  1.000e-03 Eh
 Orbital Gradient       TolG            ....  5.000e-05
 Orbital Rotation angle TolX            ....  5.000e-05
 DIIS Error             TolErr          ....  1.000e-06

------------------------------
INITIAL GUESS: MODEL POTENTIAL
------------------------------
Loading Hartree-Fock densities                     ... done
Calculating cut-offs                               ... done
Initializing the effective Hamiltonian             ... done
Setting up the integral package (SHARK)            ... done
Starting the Coulomb interaction                   ... done (   0.1 sec)
Making the grid                                    ... done (   0.1 sec)
Mapping shells                                     ... done
Starting the XC term evaluation                    ... done (   0.2 sec)
  promolecular density results
     # of electrons  =     63.996124016
     EX              =    -55.315354208
     EC              =     -2.145271378
     EX+EC           =    -57.460625586
Transforming the Hamiltonian                       ... done (   0.0 sec)
Diagonalizing the Hamiltonian                      ... done (   0.0 sec)
Back transforming the eigenvectors                 ... done (   0.0 sec)
Now organizing SCF variables                       ... done
                      ------------------
                      INITIAL GUESS DONE (   0.4 sec)
                      ------------------
             **** ENERGY FILE WAS UPDATED (HOMO_LUMO.en.tmp) ****
Finished Guess after   0.4 sec
Maximum memory used throughout the entire GUESS-calculation: 26.6 MB

-------------------------------------------------------------------------------------------
                                      ORCA LEAN-SCF
                              memory conserving SCF solver
-------------------------------------------------------------------------------------------

----------------------------------------D-I-I-S--------------------------------------------
Iteration    Energy (Eh)           Delta-E    RMSDP     MaxDP     DIISErr   Damp  Time(sec)
-------------------------------------------------------------------------------------------
               ***  Starting incremental Fock matrix formation  ***
    1    -436.5932008906017359     0.00e+00  1.70e-03  6.00e-02  2.59e-01  0.700   0.8
    2    -436.7086329988653119    -1.15e-01  1.13e-03  3.46e-02  6.46e-02  0.700   0.8
                               ***Turning on AO-DIIS***
    3    -436.7389564517138183    -3.03e-02  4.92e-04  1.21e-02  3.65e-02  0.700   0.8
    4    -436.7620560759251589    -2.31e-02  7.45e-04  1.71e-02  3.17e-02  0.000   0.7
    5    -436.8171763241305712    -5.51e-02  3.32e-04  1.34e-02  8.06e-03  0.000   0.7
                              *** Initializing SOSCF ***
---------------------------------------S-O-S-C-F--------------------------------------
Iteration    Energy (Eh)           Delta-E    RMSDP     MaxDP     MaxGrad    Time(sec)
--------------------------------------------------------------------------------------
    6    -436.8177036314557995    -5.27e-04  9.97e-05  3.38e-03  1.96e-03     0.7
               *** Restarting incremental Fock matrix formation ***
    7    -436.8177395950681898    -3.60e-05  7.99e-05  2.30e-03  3.54e-04     0.8
    8    -436.8177323383619637     7.26e-06  2.50e-05  6.05e-04  9.19e-04     0.7
    9    -436.8177437345378280    -1.14e-05  2.28e-05  8.20e-04  1.33e-04     0.7
   10    -436.8177431417578305     5.93e-07  8.43e-06  3.94e-04  2.55e-04     0.6
                 **** Energy Check signals convergence ****

               *****************************************************
               *                     SUCCESS                       *
               *           SCF CONVERGED AFTER  10 CYCLES          *
               *****************************************************

             **** ENERGY FILE WAS UPDATED (HOMO_LUMO.en.tmp) ****

----------------
TOTAL SCF ENERGY
----------------

Total Energy       :       -436.81774383429916 Eh          -11886.41510 eV

Components:
Nuclear Repulsion  :        409.32704088275267 Eh           11138.35505 eV
Electronic Energy  :       -846.14478471705183 Eh          -23024.77015 eV
One Electron Energy:      -1404.17404076251296 Eh          -38209.51818 eV
Two Electron Energy:        558.02925604546112 Eh           15184.74803 eV

Virial components:
Potential Energy   :       -871.84806056415346 Eh          -23724.19184 eV
Kinetic Energy     :        435.03031672985435 Eh           11837.77674 eV
Virial Ratio       :          2.00410874147319

DFT components:
N(Alpha)           :       32.000019740910 electrons
N(Beta)            :       32.000019740910 electrons
N(Total)           :       64.000039481820 electrons
E(X)               :      -56.175213377358 Eh       
E(C)               :       -2.148556810811 Eh       
E(XC)              :      -58.323770188169 Eh       

---------------
SCF CONVERGENCE
---------------

  Last Energy change         ...   -5.9278e-07  Tolerance :   1.0000e-06
  Last MAX-Density change    ...    3.9385e-04  Tolerance :   1.0000e-05
  Last RMS-Density change    ...    8.4289e-06  Tolerance :   1.0000e-06
  Last DIIS Error            ...    1.9597e-03  Tolerance :   1.0000e-06
  Last Orbital Gradient      ...    2.5454e-04  Tolerance :   5.0000e-05
  Last Orbital Rotation      ...    5.1460e-04  Tolerance :   5.0000e-05


----------------
ORBITAL ENERGIES
----------------

  NO   OCC          E(Eh)            E(eV) 
   0   2.0000     -18.793592      -511.3997 
   1   2.0000     -18.792578      -511.3720 
   2   2.0000     -14.218825      -386.9139 
   3   2.0000      -9.965570      -271.1770 
   4   2.0000      -9.930737      -270.2291 
   5   2.0000      -9.930645      -270.2266 
   6   2.0000      -9.930005      -270.2092 
   7   2.0000      -9.928051      -270.1560 
   8   2.0000      -9.927990      -270.1543 
   9   2.0000      -1.128054       -30.6959 
  10   2.0000      -0.966012       -26.2865 
  11   2.0000      -0.815265       -22.1845 
  12   2.0000      -0.735165       -20.0048 
  13   2.0000      -0.705994       -19.2111 
  14   2.0000      -0.638213       -17.3667 
  15   2.0000      -0.575031       -15.6474 
  16   2.0000      -0.542781       -14.7698 
  17   2.0000      -0.507883       -13.8202 
  18   2.0000      -0.480312       -13.0699 
  19   2.0000      -0.460884       -12.5413 
  20   2.0000      -0.460510       -12.5311 
  21   2.0000      -0.424534       -11.5521 
  22   2.0000      -0.419161       -11.4059 
  23   2.0000      -0.401917       -10.9367 
  24   2.0000      -0.356868        -9.7109 
  25   2.0000      -0.347171        -9.4470 
  26   2.0000      -0.329946        -8.9783 
  27   2.0000      -0.279832        -7.6146 
  28   2.0000      -0.262941        -7.1550 
  29   2.0000      -0.261207        -7.1078 
  30   2.0000      -0.257108        -6.9963 
  31   2.0000      -0.245082        -6.6690 
  32   0.0000      -0.124828        -3.3967 
  33   0.0000      -0.068277        -1.8579 
  34   0.0000      -0.045251        -1.2313 
  35   0.0000       0.011148         0.3034 
  36   0.0000       0.047786         1.3003 
  37   0.0000       0.053656         1.4601 
  38   0.0000       0.077565         2.1106 
  39   0.0000       0.080573         2.1925 
  40   0.0000       0.089083         2.4241 
  41   0.0000       0.089151         2.4259 
  42   0.0000       0.115152         3.1335 
*Only the first 10 virtual orbitals were printed.
------------------
MOLECULAR ORBITALS (RHF, ROHF)
------------------
                      0         1         2         3         4         5   
                 -18.79359 -18.79258 -14.21883  -9.96557  -9.93074  -9.93065
                   2.00000   2.00000   2.00000   2.00000   2.00000   2.00000
                  --------  --------  --------  --------  --------  --------
  0C   1s         0.000032  0.000032 -0.000003 -0.467996 -0.002186 -0.002620
  0C   2s        -0.000165 -0.000164  0.000012 -0.606289 -0.002625 -0.003145
  0C   3s         0.002203  0.002195  0.003592 -0.049297  0.000073  0.000091
  0C   4s        -0.009190 -0.009155 -0.016801  0.057571 -0.002469 -0.003015
  0C   5s        -0.000242 -0.000244 -0.003326 -0.045712 -0.011762 -0.014137
  0C   1pz        0.000000  0.000000  0.000000  0.000000 -0.000000 -0.000000
  0C   1px       -0.000114 -0.000158 -0.000128  0.000257  0.000447 -0.000186
  0C   1py        0.000114  0.000031  0.000068 -0.000136  0.000620 -0.000615
  0C   2pz        0.000000  0.000000 -0.000000 -0.000000  0.000000  0.000000
  0C   2px       -0.003135 -0.002008  0.003368  0.006539 -0.012501  0.004013
  0C   2py        0.000319  0.002417 -0.001790 -0.003478 -0.015969  0.016693
  0C   3pz       -0.000000  0.000000  0.000000  0.000001 -0.000000 -0.000000
  0C   3px        0.002876 -0.013811 -0.022291 -0.028391  0.008966 -0.000076
  0C   3py        0.018607 -0.012851  0.011841  0.015082  0.008108 -0.010684
  0C   1dz2      -0.000130 -0.000130  0.000042  0.001570  0.000285  0.000343
  0C   1dxz      -0.000000  0.000000 -0.000000  0.000000  0.000000  0.000000
  0C   1dyz      -0.000000  0.000000  0.000000 -0.000000 -0.000000 -0.000000
  0C   1dx2y2     0.000031 -0.000078 -0.000097  0.000143 -0.000028  0.000005
  0C   1dxy       0.000071 -0.000003  0.000144 -0.000211  0.000000  0.000027
  0C   2dz2       0.001628  0.001622  0.004097 -0.005984  0.000702  0.000847
  0C   2dxz       0.000000 -0.000000  0.000000 -0.000000  0.000000 -0.000000
  0C   2dyz       0.000000 -0.000000 -0.000000 -0.000000  0.000000 -0.000000
  0C   2dx2y2    -0.000058  0.003249 -0.000373 -0.003687 -0.007279  0.013289
  0C   2dxy      -0.003480 -0.001232  0.000554  0.005452 -0.012572 -0.000235
  0C   1f0        0.000000  0.000000  0.000000  0.000000 -0.000000 -0.000000
  0C   1f+1      -0.000061 -0.000107 -0.000150 -0.000151  0.000905  0.000056
  0C   1f-1       0.000088  0.000000  0.000080  0.000080  0.000744 -0.001049
  0C   1f+2       0.000000  0.000000 -0.000000 -0.000000  0.000000 -0.000000
  0C   1f-2      -0.000000 -0.000000  0.000000  0.000000  0.000000 -0.000000
  0C   1f+3       0.000077 -0.000070 -0.000040 -0.000057 -0.000201 -0.000019
  0C   1f-3      -0.000027 -0.000043  0.000376  0.000536  0.000846  0.001040
  1C   1s         0.000001  0.000011 -0.000020 -0.002311 -0.042559  0.464870
  1C   2s        -0.000006 -0.000054  0.000115 -0.003234 -0.055086  0.602581
  1C   3s         0.000231 -0.000031 -0.002668  0.003037 -0.003671  0.041289
  1C   4s         0.000039  0.003918  0.013261 -0.028103 -0.007670 -0.006516
  1C   5s         0.019135 -0.004779  0.011070  0.044126  0.011950  0.015473
  1C   1pz       -0.000000  0.000000 -0.000000 -0.000000  0.000000 -0.000000
  1C   1px        0.000088  0.000044 -0.000044  0.000219  0.000042  0.000953
  1C   1py       -0.000103 -0.000068 -0.000160 -0.000128  0.000177  0.000617
  1C   2pz        0.000000 -0.000000 -0.000000  0.000000 -0.000000  0.000000
  1C   2px       -0.002695 -0.002150  0.002549 -0.003961 -0.002320 -0.003634
  1C   2py        0.003339  0.005358  0.002677 -0.004312 -0.011907  0.011313
  1C   3pz       -0.000000 -0.000000 -0.000000 -0.000000  0.000000 -0.000000
  1C   3px        0.003664  0.007920  0.008796  0.015643 -0.002330  0.002394
  1C   3py        0.005226 -0.007597  0.001362  0.007239  0.005626 -0.003157
  1C   1dz2      -0.000033 -0.000049  0.000003 -0.000159  0.000267 -0.001578
  1C   1dxz      -0.000000  0.000000  0.000000  0.000000  0.000000 -0.000000
  1C   1dyz       0.000000 -0.000000 -0.000000  0.000000 -0.000000  0.000000
  1C   1dx2y2     0.000017 -0.000053 -0.000107 -0.000226  0.000131 -0.000200
  1C   1dxy      -0.000076 -0.000040  0.000072 -0.000032  0.000176 -0.000278
  1C   2dz2       0.000439 -0.000443 -0.002037  0.002875  0.000409 -0.000693
  1C   2dxz       0.000000  0.000000 -0.000000  0.000000 -0.000000  0.000000
  1C   2dyz       0.000000 -0.000000  0.000000 -0.000000  0.000000  0.000000
  1C   2dx2y2    -0.001343 -0.001511 -0.000088 -0.001545  0.003124 -0.004647
  1C   2dxy      -0.000448  0.000508 -0.001965  0.003017 -0.004556  0.000689
  1C   1f0       -0.000000  0.000000 -0.000000 -0.000000  0.000000 -0.000000
  1C   1f+1       0.000068  0.000025 -0.000048  0.000079  0.000066  0.000446
  1C   1f-1      -0.000090 -0.000078 -0.000192 -0.000486  0.000227  0.000021
  1C   1f+2      -0.000000  0.000000 -0.000000 -0.000000 -0.000000 -0.000000
  1C   1f-2      -0.000000 -0.000000 -0.000000  0.000000  0.000000  0.000000
  1C   1f+3      -0.000168 -0.000041 -0.000122  0.000105 -0.000171 -0.000106
  1C   1f-3      -0.000202 -0.000001  0.000116  0.000602 -0.000050  0.001461
  2C   1s         0.000011  0.000001 -0.000020 -0.002318  0.464907  0.042625
  2C   2s        -0.000054 -0.000006  0.000115 -0.003242  0.602615  0.055331
  2C   3s        -0.000031  0.000233 -0.002667  0.003036  0.041273  0.003894
  2C   4s         0.003923  0.000019  0.013257 -0.028096 -0.005017 -0.008741
  2C   5s        -0.004729  0.019143  0.011069  0.044123  0.013061  0.014595
  2C   1pz        0.000000 -0.000000 -0.000000 -0.000000 -0.000000 -0.000000
  2C   1px        0.000081  0.000134  0.000108  0.000229  0.000043 -0.000116
  2C   1py        0.000001 -0.000016  0.000126 -0.000110 -0.001092 -0.000338
  2C   2pz        0.000000  0.000000 -0.000000  0.000000  0.000000 -0.000000
  2C   2px       -0.005658 -0.004257 -0.000794  0.001351 -0.012731  0.006325
  2C   2py       -0.001219  0.000369 -0.003609  0.005694 -0.004835  0.007852
  2C   3pz       -0.000000  0.000000 -0.000000 -0.000000 -0.000000  0.000000
  2C   3px        0.010726 -0.002308  0.003795  0.002759  0.004973 -0.005148
  2C   3py       -0.002325 -0.005954 -0.008051 -0.017014  0.000010 -0.001248
  2C   1dz2      -0.000049 -0.000033  0.000003 -0.000159 -0.001600 -0.000024
  2C   1dxz       0.000000 -0.000000  0.000000 -0.000000 -0.000000  0.000000
  2C   1dyz      -0.000000  0.000000 -0.000000 -0.000000  0.000000 -0.000000
  2C   1dx2y2     0.000058  0.000064 -0.000027  0.000113  0.000366 -0.000149
  2C   1dxy       0.000034 -0.000045  0.000127  0.000198  0.000091 -0.000040
  2C   2dz2      -0.000443  0.000441 -0.002037  0.002875 -0.000756  0.000277
  2C   2dxz       0.000000 -0.000000 -0.000000  0.000000 -0.000000 -0.000000
  2C   2dyz      -0.000000 -0.000000  0.000000 -0.000000 -0.000000  0.000000
  2C   2dx2y2     0.000095  0.000914  0.001857 -0.002223  0.000518  0.003211
  2C   2dxy       0.001596  0.001074 -0.000651  0.002561  0.005310 -0.003683
  2C   1f0        0.000000 -0.000000 -0.000000 -0.000000 -0.000000  0.000000
  2C   1f+1       0.000079  0.000112  0.000132  0.000447  0.000254 -0.000106
  2C   1f-1       0.000023 -0.000006  0.000147  0.000206 -0.000341 -0.000248
  2C   1f+2      -0.000000  0.000000  0.000000  0.000000 -0.000000 -0.000000
  2C   1f-2      -0.000000 -0.000000  0.000000  0.000000  0.000000  0.000000
  2C   1f+3       0.000041  0.000207  0.000095 -0.000230 -0.000233  0.000138
  2C   1f-3       0.000007 -0.000163  0.000139  0.000566  0.001430  0.000251
  3C   1s         0.000007  0.000006 -0.000005  0.000043  0.031281  0.001756
  3C   2s        -0.000034 -0.000028  0.000027  0.000026  0.040761  0.002441
  3C   3s         0.000225 -0.000387  0.000565 -0.001021  0.002058 -0.000759
  3C   4s         0.000390  0.004022 -0.007386  0.010685  0.012045 -0.003031
  3C   5s        -0.009025 -0.009471 -0.004865 -0.029647 -0.012831 -0.005587
  3C   1pz       -0.000000  0.000000  0.000000 -0.000000  0.000000 -0.000000
  3C   1px        0.000017  0.000014  0.000019  0.000116 -0.000207  0.000173
  3C   1py       -0.000057  0.000026  0.000051 -0.000125  0.000321  0.000114
  3C   2pz        0.000000  0.000000 -0.000000  0.000000 -0.000000 -0.000000
  3C   2px       -0.001671 -0.002079  0.003244 -0.006999 -0.000334  0.001193
  3C   2py        0.001995  0.000061 -0.001246  0.002888 -0.006259 -0.000623
  3C   3pz       -0.000000 -0.000000 -0.000000 -0.000000 -0.000000  0.000000
  3C   3px        0.004279  0.001751 -0.000395  0.008007  0.004256  0.000871
  3C   3py       -0.003012  0.002041 -0.002283  0.002271 -0.002756  0.002880
  3C   1dz2      -0.000031 -0.000050  0.000083 -0.000086  0.000110  0.000099
  3C   1dxz      -0.000000 -0.000000  0.000000 -0.000000  0.000000  0.000000
  3C   1dyz       0.000000  0.000000  0.000000 -0.000000 -0.000000 -0.000000
  3C   1dx2y2    -0.000002 -0.000007 -0.000091  0.000075 -0.000196 -0.000002
  3C   1dxy      -0.000029 -0.000086 -0.000036  0.000059  0.000236 -0.000000
  3C   2dz2       0.000059 -0.000522  0.000576 -0.001096 -0.000357  0.000229
  3C   2dxz      -0.000000 -0.000000  0.000000 -0.000000  0.000000 -0.000000
  3C   2dyz      -0.000000  0.000000 -0.000000  0.000000 -0.000000 -0.000000
  3C   2dx2y2     0.000736  0.000394 -0.000065  0.001436 -0.003167  0.001217
  3C   2dxy      -0.000552 -0.000294  0.001330 -0.002132  0.002812  0.002619
  3C   1f0       -0.000000 -0.000000  0.000000 -0.000000  0.000000  0.000000
  3C   1f+1       0.000031  0.000072 -0.000045  0.000155 -0.000627 -0.000063
  3C   1f-1      -0.000031 -0.000016 -0.000009 -0.000100  0.000535 -0.000000
  3C   1f+2       0.000000 -0.000000 -0.000000  0.000000 -0.000000  0.000000
  3C   1f-2      -0.000000  0.000000  0.000000 -0.000000  0.000000  0.000000
  3C   1f+3      -0.000064 -0.000023 -0.000055  0.000078 -0.000011  0.000083
  3C   1f-3       0.000002 -0.000089  0.000055 -0.000014  0.000823  0.000180
  4C   1s         0.000005  0.000005 -0.000004  0.000099  0.004184  0.005859
  4C   2s        -0.000025 -0.000025  0.000025  0.000022  0.005452  0.007630
  4C   3s         0.000243  0.000242 -0.000594  0.001118  0.000864  0.001110
  4C   4s         0.000053  0.000050  0.002315 -0.002768 -0.005287 -0.006359
  4C   5s         0.003745  0.003734 -0.002082  0.020721  0.005114  0.006194
  4C   1pz        0.000000  0.000000 -0.000000  0.000000  0.000000  0.000000
  4C   1px       -0.000024  0.000006  0.000033 -0.000096  0.000015 -0.000267
  4C   1py       -0.000023  0.000032 -0.000018  0.000051  0.000328 -0.000139
  4C   2pz       -0.000000  0.000000 -0.000000  0.000000 -0.000000 -0.000000
  4C   2px        0.000420 -0.000990 -0.000018 -0.000588  0.000098  0.007527
  4C   2py        0.001479 -0.001179  0.000010  0.000315 -0.008846  0.003332
  4C   3pz        0.000000  0.000000  0.000000  0.000000  0.000000  0.000000
  4C   3px       -0.003039 -0.000719 -0.000085 -0.007535 -0.001913 -0.000290
  4C   3py       -0.001175  0.003179  0.000046  0.004004 -0.001378  0.002149
  4C   1dz2      -0.000011 -0.000011  0.000037 -0.000038  0.000077  0.000090
  4C   1dxz       0.000000  0.000000  0.000000 -0.000000  0.000000  0.000000
  4C   1dyz      -0.000000  0.000000 -0.000000  0.000000  0.000000 -0.000000
  4C   1dx2y2    -0.000046  0.000016 -0.000023  0.000004  0.000025  0.000016
  4C   1dxy       0.000001  0.000043  0.000034 -0.000006 -0.000022 -0.000036
  4C   2dz2       0.000049  0.000049 -0.000639  0.000372  0.000318  0.000381
  4C   2dxz       0.000000  0.000000 -0.000000  0.000000 -0.000000  0.000000
  4C   2dyz       0.000000 -0.000000  0.000000 -0.000000 -0.000000  0.000000
  4C   2dx2y2    -0.000604  0.000314 -0.000113 -0.000169  0.002501 -0.002486
  4C   2dxy      -0.000093  0.000525  0.000166  0.000249  0.002112 -0.001170
  4C   1f0        0.000000 -0.000000  0.000000 -0.000000  0.000000  0.000000
  4C   1f+1      -0.000005  0.000037 -0.000007  0.000043 -0.000004 -0.000245
  4C   1f-1      -0.000049  0.000032  0.000004 -0.000023  0.000285 -0.000107
  4C   1f+2       0.000000  0.000000 -0.000000  0.000000  0.000000 -0.000000
  4C   1f-2      -0.000000 -0.000000  0.000000 -0.000000  0.000000  0.000000
  4C   1f+3      -0.000004  0.000009 -0.000008  0.000004  0.000010 -0.000021
  4C   1f-3      -0.000024 -0.000023  0.000075 -0.000033  0.000062  0.000072
  5C   1s         0.000006  0.000007 -0.000005  0.000043 -0.003994  0.031601
  5C   2s        -0.000028 -0.000034  0.000027  0.000026 -0.005053  0.041204
  5C   3s        -0.000386  0.000226  0.000566 -0.001022 -0.001121  0.001930
  5C   4s         0.004020  0.000381 -0.007389  0.010687 -0.005185  0.011299
  5C   5s        -0.009499 -0.008997 -0.004865 -0.029646 -0.003121 -0.013631
  5C   1pz        0.000000 -0.000000  0.000000 -0.000000 -0.000000  0.000000
  5C   1px       -0.000013  0.000056 -0.000032  0.000168  0.000070 -0.000374
  5C   1py       -0.000026  0.000018 -0.000044 -0.000026 -0.000202 -0.000044
  5C   2pz        0.000000  0.000000 -0.000000  0.000000 -0.000000 -0.000000
  5C   2px       -0.001221 -0.002584  0.002852 -0.006309  0.000293  0.005109
  5C   2py        0.001689  0.000264 -0.001991  0.004182 -0.001316  0.003609
  5C   3pz       -0.000000 -0.000000 -0.000000 -0.000000  0.000000 -0.000000
  5C   3px       -0.000697  0.004893  0.001673  0.002604 -0.002712  0.004239
  5C   3py       -0.002599 -0.001852  0.001607 -0.007904 -0.001922 -0.002377
  5C   1dz2      -0.000050 -0.000031  0.000083 -0.000086  0.000077  0.000124
  5C   1dxz      -0.000000 -0.000000  0.000000 -0.000000  0.000000  0.000000
  5C   1dyz       0.000000 -0.000000 -0.000000  0.000000 -0.000000 -0.000000
  5C   1dx2y2     0.000083  0.000028  0.000067 -0.000083  0.000027 -0.000143
  5C   1dxy      -0.000026 -0.000009  0.000071 -0.000048 -0.000047  0.000265
  5C   2dz2      -0.000521  0.000060  0.000577 -0.001097  0.000291 -0.000310
  5C   2dxz      -0.000000 -0.000000  0.000000 -0.000000  0.000000  0.000000
  5C   2dyz       0.000000  0.000000 -0.000000  0.000000  0.000000 -0.000000
  5C   2dx2y2     0.000126  0.000237 -0.001211  0.001444 -0.002575 -0.001931
  5C   2dxy      -0.000477 -0.000887  0.000558 -0.002127 -0.000856  0.003882
  5C   1f0       -0.000000 -0.000000  0.000000 -0.000000 -0.000000  0.000000
  5C   1f+1       0.000053  0.000043 -0.000018  0.000170  0.000108 -0.000786
  5C   1f-1      -0.000051 -0.000008  0.000043 -0.000073  0.000011  0.000227
  5C   1f+2       0.000000  0.000000  0.000000  0.000000  0.000000 -0.000000
  5C   1f-2       0.000000 -0.000000  0.000000 -0.000000 -0.000000  0.000000
  5C   1f+3       0.000042  0.000061  0.000042 -0.000073 -0.000088 -0.000181
  5C   1f-3      -0.000082  0.000016  0.000066 -0.000030  0.000008  0.000822
  6H   1s         0.000035  0.000041 -0.000026 -0.000231 -0.000676 -0.000105
  6H   2s        -0.000140  0.001134  0.000090  0.002769 -0.001112 -0.000898
  6H   3s         0.001182  0.001122  0.002730  0.002116 -0.002893 -0.000945
  6H   1pz        0.000000  0.000000 -0.000000  0.000000  0.000000 -0.000000
  6H   1px        0.000009 -0.000027  0.000211 -0.000637 -0.000460  0.000309
  6H   1py        0.000104 -0.000215  0.000062 -0.000448  0.002196  0.000556
  7H   1s         0.000040  0.000010 -0.000104  0.000124  0.000053 -0.000169
  7H   2s         0.000174 -0.000056 -0.000053  0.000583 -0.001218 -0.001296
  7H   3s        -0.000316 -0.000111  0.001704 -0.000366  0.000812 -0.000033
  7H   1pz        0.000000 -0.000000  0.000000  0.000000 -0.000000 -0.000000
  7H   1px       -0.000058 -0.000009 -0.000005 -0.000165  0.000532  0.000130
  7H   1py        0.000041  0.000029  0.000037 -0.000026 -0.000341  0.000105
  8H   1s         0.000032  0.000031 -0.000047  0.000032 -0.000094 -0.000114
  8H   2s         0.000357  0.000356 -0.000566  0.001265 -0.000945 -0.001138
  8H   3s         0.000384  0.000383  0.000591  0.001512 -0.000102 -0.000124
  8H   1pz        0.000000  0.000000 -0.000000  0.000000 -0.000000 -0.000000
  8H   1px       -0.000036 -0.000069  0.000117 -0.000204  0.000185  0.000394
  8H   1py        0.000060 -0.000004 -0.000062  0.000109 -0.000298 -0.000042
  9H   1s         0.000011  0.000040 -0.000105  0.000124 -0.000176  0.000021
  9H   2s        -0.000055  0.000174 -0.000053  0.000584 -0.001049 -0.001438
  9H   3s        -0.000111 -0.000316  0.001705 -0.000365 -0.000180  0.000791
  9H   1pz       -0.000000  0.000000  0.000000  0.000000 -0.000000 -0.000000
  9H   1px       -0.000029 -0.000066 -0.000034 -0.000071 -0.000118  0.000567
  9H   1py       -0.000009  0.000026 -0.000017  0.000152 -0.000117 -0.000278
 10H   1s         0.000041  0.000035 -0.000026 -0.000231  0.000020 -0.000684
 10H   2s         0.001133 -0.000143  0.000090  0.002769 -0.000679 -0.001258
 10H   3s         0.001126  0.001179  0.002730  0.002116 -0.000406 -0.003013
 10H   1pz        0.000000  0.000000 -0.000000  0.000000 -0.000000  0.000000
 10H   1px        0.000162 -0.000081  0.000067  0.000014  0.000095 -0.002095
 10H   1py        0.000142 -0.000066 -0.000210  0.000778 -0.000404 -0.000936
 11N   1s         0.000007  0.000007 -0.449445  0.000012  0.000007  0.000008
 11N   2s        -0.000022 -0.000022 -0.625244  0.000006 -0.000082 -0.000099
 11N   3s        -0.003473 -0.003462 -0.038739  0.002769  0.000681  0.000819
 11N   4s         0.014451  0.014403  0.029221 -0.009062 -0.004137 -0.004978
 11N   5s        -0.014981 -0.014930 -0.032803 -0.021871  0.006595  0.007927
 11N   1pz        0.000000  0.000000  0.000000 -0.000000 -0.000000 -0.000000
 11N   1px       -0.000049  0.000320 -0.000256 -0.000621  0.000342  0.000257
 11N   1py       -0.000419  0.000276  0.000136  0.000330  0.000002 -0.000289
 11N   2pz       -0.000000 -0.000000  0.000000  0.000000  0.000000  0.000000
 11N   2px        0.000127 -0.011030  0.007207  0.005746 -0.003761 -0.003684
 11N   2py        0.013399 -0.007646 -0.003830 -0.003054  0.001000  0.002788
 11N   3pz        0.000000  0.000000  0.000000  0.000000  0.000000 -0.000000
 11N   3px       -0.006005  0.011449 -0.004705 -0.008112 -0.001551  0.004532
 11N   3py       -0.017853  0.015023  0.002501  0.004310 -0.006764  0.003912
 11N   1dz2      -0.000227 -0.000226  0.000737 -0.000091  0.000061  0.000073
 11N   1dxz      -0.000000  0.000000 -0.000000 -0.000000 -0.000000  0.000000
 11N   1dyz      -0.000000  0.000000  0.000000  0.000000 -0.000000  0.000000
 11N   1dx2y2    -0.000234  0.000108  0.000246 -0.000257  0.000249 -0.000112
 11N   1dxy      -0.000022  0.000209 -0.000364  0.000380  0.000067 -0.000197
 11N   2dz2      -0.002929 -0.002919 -0.000420  0.003396 -0.000481 -0.000579
 11N   2dxz      -0.000000  0.000000 -0.000000 -0.000000  0.000000  0.000000
 11N   2dyz      -0.000000  0.000000  0.000000  0.000000  0.000000 -0.000000
 11N   2dx2y2    -0.006495  0.002411  0.001417  0.004087 -0.002929  0.000624
 11N   2dxy       0.000036  0.006038 -0.002096 -0.006050 -0.000058  0.002734
 11N   1f0        0.000000  0.000000 -0.000000 -0.000000  0.000000  0.000000
 11N   1f+1      -0.000067  0.000463 -0.000430 -0.000660  0.000029  0.000047
 11N   1f-1      -0.000604  0.000395  0.000229  0.000351 -0.000029 -0.000013
 11N   1f+2       0.000000 -0.000000 -0.000000 -0.000000  0.000000 -0.000000
 11N   1f-2       0.000000 -0.000000  0.000000  0.000000  0.000000 -0.000000
 11N   1f+3      -0.000066 -0.000049  0.000054  0.000029  0.000069 -0.000098
 11N   1f-3       0.000542  0.000542 -0.000505 -0.000268  0.000196  0.000217
 12O   1s         0.435972 -0.000681  0.000010 -0.000008  0.000003  0.000001
 12O   2s         0.638174 -0.000995  0.000071  0.000119 -0.000052 -0.000019
 12O   3s         0.040519 -0.000268 -0.001142 -0.002121  0.000781  0.000317
 12O   4s        -0.040657  0.002096  0.001890  0.008397 -0.003405 -0.000946
 12O   5s         0.028003 -0.008211  0.003153  0.000388  0.004745 -0.002955
 12O   1pz        0.000000 -0.000000 -0.000000 -0.000000  0.000000  0.000000
 12O   1px        0.000014  0.000056 -0.000039 -0.000127  0.000007  0.000042
 12O   1py       -0.002737 -0.000119  0.000382  0.000337  0.000008 -0.000074
 12O   2pz       -0.000000  0.000000  0.000000  0.000000 -0.000000 -0.000000
 12O   2px        0.000081 -0.000770  0.000158  0.001162  0.000110 -0.000496
 12O   2py        0.012661 -0.000338 -0.002211 -0.005547  0.001303  0.000763
 12O   3pz        0.000000 -0.000000  0.000000 -0.000000  0.000000 -0.000000
 12O   3px        0.000803 -0.001193 -0.000104  0.001271  0.000478 -0.000074
 12O   3py       -0.006942  0.002016 -0.000872 -0.000438 -0.001064  0.000636
 12O   1dz2      -0.000153 -0.000076 -0.000003 -0.000019  0.000023  0.000015
 12O   1dxz      -0.000000  0.000000 -0.000000 -0.000000 -0.000000  0.000000
 12O   1dyz      -0.000000 -0.000000 -0.000000  0.000000  0.000000 -0.000000
 12O   1dx2y2    -0.000417  0.000029  0.000062  0.000042  0.000021 -0.000002
 12O   1dxy       0.000040 -0.000033  0.000015  0.000114  0.000033 -0.000012
 12O   2dz2       0.002187  0.000250 -0.000760 -0.000852  0.000176  0.000084
 12O   2dxz       0.000000 -0.000000  0.000000  0.000000  0.000000 -0.000000
 12O   2dyz       0.000000  0.000000 -0.000000 -0.000000  0.000000  0.000000
 12O   2dx2y2     0.003978 -0.000326 -0.001583 -0.001676  0.000350  0.000213
 12O   2dxy      -0.000208  0.000487  0.000014 -0.001083 -0.000272  0.000297
 12O   1f0        0.000000  0.000000 -0.000000 -0.000000  0.000000  0.000000
 12O   1f+1      -0.000005 -0.000020  0.000011 -0.000020 -0.000011  0.000002
 12O   1f-1      -0.000462 -0.000104  0.000514  0.000129 -0.000016 -0.000047
 12O   1f+2       0.000000 -0.000000 -0.000000 -0.000000  0.000000  0.000000
 12O   1f-2      -0.000000  0.000000  0.000000 -0.000000 -0.000000  0.000000
 12O   1f+3       0.000019 -0.000032 -0.000095  0.000185  0.000070 -0.000058
 12O   1f-3       0.000640 -0.000143 -0.000749 -0.000192  0.000047  0.000052
 13O   1s         0.000680  0.435972  0.000010 -0.000008  0.000001  0.000003
 13O   2s         0.000998  0.638174  0.000071  0.000119 -0.000009 -0.000054
 13O   3s        -0.000142  0.040519 -0.001142 -0.002121  0.000169  0.000826
 13O   4s         0.001968 -0.040657  0.001888  0.008397 -0.000310 -0.003523
 13O   5s        -0.008125  0.028025  0.003154  0.000388 -0.003768  0.004133
 13O   1pz       -0.000000  0.000000 -0.000000 -0.000000  0.000000  0.000000
 13O   1px        0.000137  0.002275 -0.000338 -0.000350  0.000084  0.000013
 13O   1py        0.000025  0.001521 -0.000182 -0.000083  0.000008 -0.000009
 13O   2pz        0.000000 -0.000000  0.000000  0.000000 -0.000000 -0.000000
 13O   2px       -0.000184 -0.010443  0.001920  0.005246 -0.000708 -0.001167
 13O   2py        0.000805 -0.007156  0.001106  0.002142  0.000133 -0.000811
 13O   3pz       -0.000000  0.000000  0.000000 -0.000000 -0.000000  0.000000
 13O   3px       -0.002319  0.006209  0.000664  0.001074 -0.000768  0.001027
 13O   3py       -0.000130  0.003221  0.000575 -0.000808 -0.000326  0.000143
 13O   1dz2      -0.000076 -0.000153 -0.000003 -0.000019  0.000011  0.000025
 13O   1dxz       0.000000  0.000000 -0.000000 -0.000000  0.000000 -0.000000
 13O   1dyz      -0.000000  0.000000  0.000000  0.000000 -0.000000  0.000000
 13O   1dx2y2     0.000020  0.000118 -0.000037 -0.000121  0.000018 -0.000036
 13O   1dxy      -0.000037  0.000401 -0.000052  0.000004 -0.000001 -0.000008
 13O   2dz2       0.000257  0.002186 -0.000760 -0.000852  0.000051  0.000188
 13O   2dxz      -0.000000 -0.000000  0.000000  0.000000 -0.000000 -0.000000
 13O   2dyz       0.000000 -0.000000  0.000000  0.000000  0.000000 -0.000000
 13O   2dx2y2    -0.000334 -0.001290  0.000578  0.001630 -0.000370  0.000055
 13O   2dxy       0.000472 -0.003769  0.001473  0.001151 -0.000007 -0.000436
 13O   1f0        0.000000  0.000000 -0.000000 -0.000000  0.000000  0.000000
 13O   1f+1       0.000076  0.000380 -0.000419 -0.000118  0.000038  0.000014
 13O   1f-1       0.000075  0.000263 -0.000297 -0.000056  0.000021  0.000023
 13O   1f+2      -0.000000 -0.000000  0.000000  0.000000 -0.000000 -0.000000
 13O   1f-2       0.000000 -0.000000  0.000000  0.000000 -0.000000 -0.000000
 13O   1f+3       0.000061 -0.000154  0.000250 -0.000140  0.000059 -0.000068
 13O   1f-3      -0.000132  0.000622 -0.000712 -0.000227  0.000056  0.000042
                      6         7         8         9        10        11   
                  -9.93001  -9.92805  -9.92799  -1.12805  -0.96601  -0.81527
                   2.00000   2.00000   2.00000   2.00000   2.00000   2.00000
                  --------  --------  --------  --------  --------  --------
  0C   1s        -0.000159  0.000116  0.000230  0.012143  0.000036 -0.056657
  0C   2s        -0.000317  0.000156  0.000311  0.025065  0.000075 -0.118577
  0C   3s        -0.000505  0.000642  0.001253 -0.040138 -0.000122  0.177913
  0C   4s         0.017286 -0.009903 -0.019386 -0.009000 -0.000060  0.213462
  0C   5s        -0.002110  0.007345  0.014355  0.027360 -0.000047 -0.009179
  0C   1pz       -0.000000 -0.000000 -0.000000 -0.000000 -0.000000 -0.000001
  0C   1px       -0.000061  0.000316  0.000156  0.024175  0.007364  0.025856
  0C   1py        0.000030  0.000283 -0.000314 -0.012858  0.013706 -0.013686
  0C   2pz       -0.000000  0.000000  0.000000 -0.000000 -0.000000 -0.000001
  0C   2px        0.007661 -0.011089 -0.007005  0.023203  0.011267  0.022352
  0C   2py       -0.004010 -0.008477  0.011065 -0.012345  0.021074 -0.011796
  0C   3pz        0.000000 -0.000000 -0.000000 -0.000001 -0.000000  0.000001
  0C   3px       -0.002778  0.005330  0.001414  0.039191  0.010417 -0.038932
  0C   3py        0.001441  0.005974 -0.005256 -0.020824  0.019503  0.020701
  0C   1dz2      -0.000142  0.000058  0.000114  0.002384  0.000005 -0.007015
  0C   1dxz      -0.000000  0.000000  0.000000  0.000000  0.000000 -0.000000
  0C   1dyz       0.000000 -0.000000 -0.000000 -0.000000  0.000000  0.000000
  0C   1dx2y2     0.000064 -0.000028 -0.000136 -0.001551 -0.002067  0.000141
  0C   1dxy      -0.000095  0.000113  0.000165  0.002301 -0.001389 -0.000208
  0C   2dz2      -0.001309  0.000615  0.001204 -0.001273 -0.000002 -0.011283
  0C   2dxz       0.000000  0.000000 -0.000000  0.000000 -0.000000 -0.000000
  0C   2dyz      -0.000000  0.000000  0.000000 -0.000000 -0.000000  0.000000
  0C   2dx2y2    -0.003794 -0.002821  0.005598 -0.005513  0.000478 -0.003938
  0C   2dxy       0.005668 -0.005538 -0.003324  0.008165  0.000346  0.005877
  0C   1f0        0.000000 -0.000000 -0.000000  0.000000  0.000000  0.000000
  0C   1f+1      -0.000254  0.000252  0.000229 -0.001016 -0.000481 -0.000834
  0C   1f-1       0.000133  0.000124 -0.000253  0.000541 -0.000901  0.000441
  0C   1f+2      -0.000000  0.000000  0.000000  0.000000 -0.000000  0.000000
  0C   1f-2       0.000000  0.000000 -0.000000 -0.000000 -0.000000 -0.000000
  0C   1f+3       0.000009  0.000145 -0.000050  0.000010 -0.002936  0.000426
  0C   1f-3      -0.000083 -0.000078 -0.000189 -0.000064 -0.000311 -0.004030
  1C   1s         0.008002  0.011209 -0.029348  0.002059  0.002164 -0.045449
  1C   2s         0.010327  0.014582 -0.037801  0.004191  0.004430 -0.094866
  1C   3s         0.000321  0.000643 -0.003411 -0.003472 -0.006746  0.145686
  1C   4s         0.005369 -0.006922  0.011527 -0.022561 -0.001011  0.124949
  1C   5s        -0.002814  0.008909 -0.028809 -0.042146  0.020199  0.057978
  1C   1pz        0.000000  0.000000 -0.000000 -0.000000 -0.000000 -0.000001
  1C   1px       -0.000363 -0.000065  0.000207  0.002077  0.002801  0.033352
  1C   1py        0.000329  0.000069 -0.000555 -0.003902 -0.003373  0.034584
  1C   2pz       -0.000000  0.000000  0.000000 -0.000000  0.000000 -0.000001
  1C   2px        0.013615 -0.001700 -0.008179  0.001528 -0.000363  0.026077
  1C   2py       -0.011197 -0.003293  0.015252 -0.012777  0.007063  0.013230
  1C   3pz        0.000000  0.000000  0.000000  0.000000  0.000000 -0.000000
  1C   3px       -0.000959  0.000994 -0.005021 -0.025379 -0.000020  0.020847
  1C   3py        0.000403  0.002241 -0.002199 -0.006291  0.007566  0.005420
  1C   1dz2      -0.000135 -0.000009  0.000326  0.000439  0.000228 -0.005405
  1C   1dxz      -0.000000 -0.000000  0.000000  0.000000  0.000000 -0.000000
  1C   1dyz       0.000000  0.000000 -0.000000 -0.000000 -0.000000  0.000000
  1C   1dx2y2     0.000051  0.000102 -0.000234  0.000463  0.000096 -0.000924
  1C   1dxy      -0.000095 -0.000032  0.000319  0.000354  0.000420 -0.000674
  1C   2dz2      -0.000317  0.000231 -0.000109  0.002717  0.000276 -0.004276
  1C   2dxz      -0.000000 -0.000000  0.000000  0.000000  0.000000 -0.000000
  1C   2dyz      -0.000000  0.000000 -0.000000 -0.000000 -0.000000  0.000000
  1C   2dx2y2     0.006059  0.001556 -0.006996  0.003475 -0.003681  0.002386
  1C   2dxy      -0.001817 -0.001138  0.003685  0.003310  0.003381  0.000157
  1C   1f0        0.000000  0.000000 -0.000000  0.000000  0.000000  0.000000
  1C   1f+1      -0.000392 -0.000103  0.000739 -0.000078 -0.000327 -0.001143
  1C   1f-1       0.000280  0.000209 -0.000660  0.000457 -0.000062 -0.000807
  1C   1f+2      -0.000000 -0.000000  0.000000  0.000000  0.000000 -0.000000
  1C   1f-2       0.000000  0.000000 -0.000000  0.000000  0.000000  0.000000
  1C   1f+3       0.000048 -0.000107 -0.000022  0.000266  0.000810 -0.000223
  1C   1f-3       0.000005  0.000197 -0.000997 -0.000258  0.000192  0.001674
  2C   1s         0.007285 -0.029885 -0.007995  0.002062 -0.002147 -0.045480
  2C   2s         0.009397 -0.038574 -0.010180  0.004197 -0.004397 -0.094930
  2C   3s         0.000257 -0.003102 -0.001466 -0.003485  0.006709  0.145804
  2C   4s         0.005327  0.013405  0.001118 -0.022539  0.000886  0.124923
  2C   5s        -0.002753 -0.028581 -0.009600 -0.042139 -0.020235  0.058025
  2C   1pz        0.000000 -0.000000 -0.000000 -0.000000  0.000000 -0.000000
  2C   1px       -0.000477  0.000520  0.000261  0.004401 -0.004337 -0.009985
  2C   1py        0.000117  0.000103  0.000094  0.000462  0.000438 -0.047007
  2C   2pz       -0.000000  0.000000  0.000000 -0.000000 -0.000000 -0.000000
  2C   2px        0.016960 -0.014973 -0.008653  0.011448  0.006100  0.003665
  2C   2py       -0.004977 -0.003346  0.001608  0.005876  0.003682 -0.028960
  2C   3pz        0.000000  0.000000  0.000000  0.000000 -0.000000 -0.000000
  2C   3px       -0.000890 -0.000044 -0.001627 -0.009005  0.006229  0.007200
  2C   3py        0.000554  0.005595  0.001461  0.024553  0.004238 -0.020332
  2C   1dz2      -0.000132  0.000268  0.000183  0.000439 -0.000225 -0.005407
  2C   1dxz      -0.000000  0.000000  0.000000  0.000000 -0.000000 -0.000000
  2C   1dyz       0.000000 -0.000000 -0.000000  0.000000  0.000000  0.000000
  2C   1dx2y2     0.000068 -0.000164 -0.000128 -0.000503  0.000423  0.000971
  2C   1dxy      -0.000083  0.000335  0.000110 -0.000297 -0.000070  0.000606
  2C   2dz2      -0.000314 -0.000225  0.000124  0.002714 -0.000263 -0.004264
  2C   2dxz      -0.000000  0.000000  0.000000  0.000000 -0.000000 -0.000000
  2C   2dyz       0.000000 -0.000000 -0.000000  0.000000  0.000000  0.000000
  2C   2dx2y2    -0.000566 -0.000937 -0.000090 -0.004366  0.001743 -0.001016
  2C   2dxy      -0.006330  0.007461  0.003093 -0.001989 -0.004684 -0.002171
  2C   1f0        0.000000 -0.000000 -0.000000  0.000000 -0.000000  0.000000
  2C   1f+1      -0.000454  0.000914  0.000374 -0.000423  0.000130  0.000029
  2C   1f-1       0.000168 -0.000179 -0.000168 -0.000190 -0.000307  0.001397
  2C   1f+2      -0.000000  0.000000  0.000000 -0.000000  0.000000  0.000000
  2C   1f-2       0.000000 -0.000000 -0.000000 -0.000000 -0.000000  0.000000
  2C   1f+3      -0.000048  0.000151  0.000187 -0.000208  0.000831 -0.000133
  2C   1f-3      -0.000005 -0.000911 -0.000392 -0.000308 -0.000020  0.001683
  3C   1s        -0.039957  0.443199  0.141308  0.000209 -0.000261 -0.039170
  3C   2s        -0.052039  0.574523  0.183190  0.000450 -0.000518 -0.081784
  3C   3s        -0.002530  0.038665  0.012645 -0.001357  0.000474  0.124250
  3C   4s        -0.010498 -0.007851 -0.009529  0.004974 -0.001561  0.118111
  3C   5s         0.017509  0.033959  0.018194  0.035097  0.006202 -0.017797
  3C   1pz        0.000000  0.000000  0.000000 -0.000000  0.000000  0.000001
  3C   1px       -0.000338 -0.000753 -0.000148  0.000481 -0.000412 -0.038280
  3C   1py        0.000511 -0.000373 -0.000404 -0.000023  0.000293 -0.018767
  3C   2pz       -0.000000  0.000000  0.000000  0.000000 -0.000000  0.000000
  3C   2px        0.010630 -0.003284 -0.002627 -0.000919  0.002681 -0.023344
  3C   2py       -0.011495 -0.002504  0.009517  0.000194 -0.004229 -0.014272
  3C   3pz        0.000000  0.000000  0.000000  0.000000  0.000000 -0.000000
  3C   3px       -0.002175 -0.005332 -0.002618 -0.009868 -0.002524  0.008889
  3C   3py       -0.004518 -0.003969 -0.001686 -0.001436 -0.003429  0.001760
  3C   1dz2      -0.000087 -0.001506 -0.000426  0.000019 -0.000012 -0.004779
  3C   1dxz       0.000000 -0.000000 -0.000000  0.000000 -0.000000 -0.000000
  3C   1dyz       0.000000  0.000000  0.000000 -0.000000  0.000000  0.000000
  3C   1dx2y2    -0.000355 -0.000140 -0.000055  0.000005 -0.000062  0.000143
  3C   1dxy       0.000083 -0.000320 -0.000141  0.000023 -0.000089 -0.000635
  3C   2dz2       0.000377 -0.000796  0.000002 -0.000483 -0.000182 -0.005360
  3C   2dxz       0.000000 -0.000000 -0.000000 -0.000000  0.000000 -0.000000
  3C   2dyz      -0.000000  0.000000  0.000000  0.000000 -0.000000  0.000000
  3C   2dx2y2    -0.007931 -0.000609  0.003724 -0.000813 -0.001422 -0.000930
  3C   2dxy       0.002138 -0.000619 -0.001438 -0.000843  0.001431 -0.000772
  3C   1f0        0.000000  0.000000  0.000000  0.000000 -0.000000 -0.000000
  3C   1f+1      -0.000291 -0.000199 -0.000019 -0.000024  0.000065  0.001085
  3C   1f-1       0.000971 -0.000097 -0.000249  0.000035  0.000010  0.000569
  3C   1f+2       0.000000  0.000000  0.000000  0.000000 -0.000000  0.000000
  3C   1f-2       0.000000 -0.000000 -0.000000  0.000000 -0.000000 -0.000000
  3C   1f+3       0.000128  0.000126  0.000119  0.000033 -0.000135  0.000203
  3C   1f-3      -0.000725 -0.001449 -0.000659 -0.000016  0.000016 -0.001873
  4C   1s        -0.464465 -0.026385 -0.049936  0.000099  0.000001 -0.037511
  4C   2s        -0.602187 -0.034054 -0.064441  0.000212  0.000003 -0.078328
[...]
      f+1     :     0.000589
      f-1     :     0.000528
      f+2     :     0.000806
      f-2     :     0.000460
      f+3     :     0.002196
      f-3     :     0.000867

  5 C s       :     3.149574  s :     3.149574
      pz      :     0.957827  p :     2.798484
      px      :     0.910425
      py      :     0.930232
      dz2     :     0.004507  d :     0.087101
      dxz     :     0.019973
      dyz     :     0.005004
      dx2y2   :     0.037516
      dxy     :     0.020101
      f0      :     0.001492  f :     0.006962
      f+1     :     0.000523
      f-1     :     0.000622
      f+2     :     0.000184
      f-2     :     0.001046
      f+3     :     0.002225
      f-3     :     0.000870

  6 H s       :     0.849945  s :     0.849945
      pz      :     0.004550  p :     0.022425
      px      :     0.004158
      py      :     0.013718

  7 H s       :     0.875888  s :     0.875888
      pz      :     0.004885  p :     0.021814
      px      :     0.010446
      py      :     0.006484

  8 H s       :     0.876890  s :     0.876890
      pz      :     0.004728  p :     0.021684
      px      :     0.011024
      py      :     0.005932

  9 H s       :     0.875889  s :     0.875889
      pz      :     0.004885  p :     0.021816
      px      :     0.003895
      py      :     0.013036

 10 H s       :     0.849896  s :     0.849896
      pz      :     0.004550  p :     0.022421
      px      :     0.011967
      py      :     0.005903

 11 N s       :     3.251732  s :     3.251732
      pz      :     1.154554  p :     3.090731
      px      :     1.017366
      py      :     0.918812
      dz2     :     0.005928  d :     0.241634
      dxz     :     0.027063
      dyz     :     0.050932
      dx2y2   :     0.073696
      dxy     :     0.084015
      f0      :     0.001279  f :     0.012819
      f+1     :     0.000753
      f-1     :     0.000939
      f+2     :     0.001653
      f-2     :     0.001185
      f+3     :     0.005164
      f-3     :     0.001846

 12 O s       :     3.868050  s :     3.868050
      pz      :     1.400672  p :     4.358930
      px      :     1.827747
      py      :     1.130512
      dz2     :     0.004965  d :     0.041795
      dxz     :     0.000243
      dyz     :     0.012294
      dx2y2   :     0.015217
      dxy     :     0.009076
      f0      :     0.000287  f :     0.003144
      f+1     :     0.000035
      f-1     :     0.000450
      f+2     :     0.000615
      f-2     :     0.000009
      f+3     :     0.000727
      f-3     :     0.001021

 13 O s       :     3.868137  s :     3.868137
      pz      :     1.401405  p :     4.359876
      px      :     1.363908
      py      :     1.594563
      dz2     :     0.004965  d :     0.041788
      dxz     :     0.008797
      dyz     :     0.003736
      dx2y2   :     0.010154
      dxy     :     0.014135
      f0      :     0.000287  f :     0.003143
      f+1     :     0.000310
      f-1     :     0.000174
      f+2     :     0.000089
      f-2     :     0.000535
      f+3     :     0.000740
      f-3     :     0.001008



                     *******************************
                     * LOEWDIN POPULATION ANALYSIS *
                     *******************************

----------------------
LOEWDIN ATOMIC CHARGES
----------------------
   0 C :   -0.151746
   1 C :   -0.092193
   2 C :   -0.092119
   3 C :   -0.122708
   4 C :   -0.114979
   5 C :   -0.122744
   6 H :    0.156259
   7 H :    0.147121
   8 H :    0.146285
   9 H :    0.147124
  10 H :    0.156262
  11 N :   -0.030433
  12 O :   -0.012610
  13 O :   -0.013518

-------------------------------
LOEWDIN REDUCED ORBITAL CHARGES
-------------------------------
  0 C s       :     2.737189  s :     2.737189
      pz      :     0.908932  p :     2.825302
      px      :     0.891126
      py      :     1.025244
      dz2     :     0.042878  d :     0.526681
      dxz     :     0.056851
      dyz     :     0.075551
      dx2y2   :     0.163152
      dxy     :     0.188249
      f0      :     0.004462  f :     0.062573
      f+1     :     0.006019
      f-1     :     0.004922
      f+2     :     0.006771
      f-2     :     0.005960
      f+3     :     0.021845
      f-3     :     0.012595

  1 C s       :     2.772543  s :     2.772543
      pz      :     0.858154  p :     2.907212
      px      :     1.023658
      py      :     1.025401
      dz2     :     0.025434  d :     0.370131
      dxz     :     0.029509
      dyz     :     0.060216
      dx2y2   :     0.121360
      dxy     :     0.133613
      f0      :     0.003195  f :     0.042306
      f+1     :     0.003486
      f-1     :     0.004117
      f+2     :     0.006922
      f-2     :     0.002417
      f+3     :     0.014215
      f-3     :     0.007954

  2 C s       :     2.772534  s :     2.772534
      pz      :     0.858101  p :     2.907148
      px      :     1.047552
      py      :     1.001495
      dz2     :     0.025434  d :     0.370131
      dxz     :     0.076328
      dyz     :     0.013394
      dx2y2   :     0.148877
      dxy     :     0.106099
      f0      :     0.003195  f :     0.042306
      f+1     :     0.004388
      f-1     :     0.003215
      f+2     :     0.001285
      f-2     :     0.008053
      f+3     :     0.014172
      f-3     :     0.007997

  3 C s       :     2.774373  s :     2.774373
      pz      :     0.880259  p :     2.931266
      px      :     1.007397
      py      :     1.043610
      dz2     :     0.025378  d :     0.375506
      dxz     :     0.028096
      dyz     :     0.054027
      dx2y2   :     0.114148
      dxy     :     0.153856
      f0      :     0.003041  f :     0.041562
      f+1     :     0.003520
      f-1     :     0.004048
      f+2     :     0.005845
      f-2     :     0.002420
      f+3     :     0.015047
      f-3     :     0.007641

  4 C s       :     2.777244  s :     2.777244
      pz      :     0.860347  p :     2.918315
      px      :     1.007545
      py      :     1.050423
      dz2     :     0.025483  d :     0.377978
      dxz     :     0.025289
      dyz     :     0.060432
      dx2y2   :     0.121595
      dxy     :     0.145179
      f0      :     0.002980  f :     0.041441
      f+1     :     0.003415
      f-1     :     0.004075
      f+2     :     0.005402
      f-2     :     0.003141
      f+3     :     0.014877
      f-3     :     0.007551

  5 C s       :     2.774369  s :     2.774369
      pz      :     0.880278  p :     2.931281
      px      :     1.062270
      py      :     0.988734
      dz2     :     0.025380  d :     0.375530
      dxz     :     0.070302
      dyz     :     0.011831
      dx2y2   :     0.165993
      dxy     :     0.102024
      f0      :     0.003041  f :     0.041564
      f+1     :     0.004385
      f-1     :     0.003184
      f+2     :     0.001309
      f-2     :     0.006957
      f+3     :     0.015034
      f-3     :     0.007655

  6 H s       :     0.781960  s :     0.781960
      pz      :     0.012582  p :     0.061780
      px      :     0.011439
      py      :     0.037760

  7 H s       :     0.794283  s :     0.794283
      pz      :     0.013066  p :     0.058596
      px      :     0.027907
      py      :     0.017623

  8 H s       :     0.795302  s :     0.795302
      pz      :     0.012664  p :     0.058413
      px      :     0.029596
      py      :     0.016153

  9 H s       :     0.794282  s :     0.794282
      pz      :     0.013066  p :     0.058595
      px      :     0.010730
      py      :     0.034799

 10 H s       :     0.781957  s :     0.781957
      pz      :     0.012583  p :     0.061781
      px      :     0.032312
      py      :     0.016886

 11 N s       :     2.946965  s :     2.946965
      pz      :     1.057721  p :     3.283579
      px      :     1.123111
      py      :     1.102747
      dz2     :     0.043545  d :     0.734065
      dxz     :     0.068286
      dyz     :     0.127957
      dx2y2   :     0.235497
      dxy     :     0.258780
      f0      :     0.002039  f :     0.065825
      f+1     :     0.003515
      f-1     :     0.005741
      f+2     :     0.009238
      f-2     :     0.006174
      f+3     :     0.028554
      f-3     :     0.010563

 12 O s       :     3.515824  s :     3.515824
      pz      :     1.364105  p :     4.388870
      px      :     1.732615
      py      :     1.292150
      dz2     :     0.013192  d :     0.097409
      dxz     :     0.000236
      dyz     :     0.022924
      dx2y2   :     0.039945
      dxy     :     0.021112
      f0      :     0.000937  f :     0.010507
      f+1     :     0.000171
      f-1     :     0.001867
      f+2     :     0.001614
      f-2     :     0.000014
      f+3     :     0.002446
      f-3     :     0.003459

 13 O s       :     3.515874  s :     3.515874
      pz      :     1.364780  p :     4.389734
      px      :     1.431234
      py      :     1.593720
      dz2     :     0.013191  d :     0.097404
      dxz     :     0.015597
      dyz     :     0.007563
      dx2y2   :     0.024299
      dxy     :     0.036754
      f0      :     0.000937  f :     0.010506
      f+1     :     0.001310
      f-1     :     0.000728
      f+2     :     0.000203
      f-2     :     0.001425
      f+3     :     0.002491
      f-3     :     0.003413



                      *****************************
                      * MAYER POPULATION ANALYSIS *
                      *****************************

  NA   - Mulliken gross atomic population
  ZA   - Total nuclear charge
  QA   - Mulliken gross atomic charge
  VA   - Mayer's total valence
  BVA  - Mayer's bonded valence
  FA   - Mayer's free valence

  ATOM       NA         ZA         QA         VA         BVA        FA
  0 C      5.8942     6.0000     0.1058     3.9010     3.9010    -0.0000
  1 C      6.1783     6.0000    -0.1783     4.0409     4.0409    -0.0000
  2 C      6.1781     6.0000    -0.1781     4.0409     4.0409    -0.0000
  3 C      6.0422     6.0000    -0.0422     3.8955     3.8955    -0.0000
  4 C      6.0846     6.0000    -0.0846     3.9761     3.9761    -0.0000
  5 C      6.0421     6.0000    -0.0421     3.8957     3.8957    -0.0000
  6 H      0.8724     1.0000     0.1276     1.0022     1.0022     0.0000
  7 H      0.8977     1.0000     0.1023     0.9663     0.9663    -0.0000
  8 H      0.8986     1.0000     0.1014     0.9650     0.9650     0.0000
  9 H      0.8977     1.0000     0.1023     0.9663     0.9663     0.0000
 10 H      0.8723     1.0000     0.1277     1.0022     1.0022    -0.0000
 11 N      6.5969     7.0000     0.4031     4.2682     4.2682     0.0000
 12 O      8.2719     8.0000    -0.2719     2.0291     2.0291     0.0000
 13 O      8.2729     8.0000    -0.2729     2.0282     2.0282    -0.0000

  Mayer bond orders larger than 0.100000
B(  0-C ,  1-C ) :   1.4183 B(  0-C ,  2-C ) :   1.4183 B(  0-C , 11-N ) :   0.9757 
B(  1-C ,  5-C ) :   1.4032 B(  1-C , 10-H ) :   0.9380 B(  2-C ,  3-C ) :   1.4031 
B(  2-C ,  6-H ) :   0.9380 B(  3-C ,  4-C ) :   1.4009 B(  3-C ,  7-H ) :   0.9649 
B(  4-C ,  5-C ) :   1.4010 B(  4-C ,  8-H ) :   0.9633 B(  5-C ,  9-H ) :   0.9649 
B( 11-N , 12-O ) :   1.6420 B( 11-N , 13-O ) :   1.6411 B( 12-O , 13-O ) :   0.2426 


-------
TIMINGS
-------

Total SCF time: 0 days 0 hours 0 min 7 sec 

Total time                  ....       7.989 sec
Sum of individual times     ....       7.393 sec  ( 92.5%)

SCF preparation             ....       0.026 sec  (  0.3%)
Fock matrix formation       ....       7.226 sec  ( 90.4%)
  Startup                   ....       0.001 sec  (  0.0% of F)
  Split-RI-J                ....       2.427 sec  ( 33.6% of F)
  XC integration            ....       5.350 sec  ( 74.0% of F)
    Basis function eval.    ....       1.584 sec  ( 29.6% of XC)
    Density eval.           ....       0.911 sec  ( 17.0% of XC)
    XC-Functional eval.     ....       0.115 sec  (  2.1% of XC)
    XC-Potential eval.      ....       2.617 sec  ( 48.9% of XC)
Diagonalization             ....       0.000 sec  (  0.0%)
Density matrix formation    ....       0.016 sec  (  0.2%)
Total Energy calculation    ....       0.005 sec  (  0.1%)
Population analysis         ....       0.005 sec  (  0.1%)
Orbital Transformation      ....       0.019 sec  (  0.2%)
Orbital Orthonormalization  ....       0.000 sec  (  0.0%)
DIIS solution               ....       0.062 sec  (  0.8%)
SOSCF solution              ....       0.036 sec  (  0.4%)
Finished LeanSCF after   8.0 sec

Maximum memory used throughout the entire LEANSCF-calculation: 32.4 MB

-------------------------   --------------------
FINAL SINGLE POINT ENERGY      -436.817743834299
-------------------------   --------------------


------------------------------------------------------------------------------
                              ORCA PROPERTY CALCULATIONS
------------------------------------------------------------------------------

GBWName                                 ... HOMO_LUMO.gbw
Number of atoms                         ...     14
Number of basis functions               ...    309
Max core memory                         ...  16384 MB

Electric properties:
Dipole moment                           ... YES
Quadrupole moment                       ...  NO
Static polarizability (Dipole/Dipole)   ...  NO
Static polarizability (Dipole/Quad.)    ...  NO
Static polarizability (Quad./Quad.)     ...  NO
Static polarizability (Velocity)        ...  NO
Static hyperpolarizability              ...  NO

Atomic electric properties:
Dipole moment                           ...  NO
Quadrupole moment                       ...  NO
Static polarizability                   ...  NO

Choice of electric origin               ... Center of mass
Position of electric origin             ...    -5.530156     1.897029    -0.000194

General magnetic properties:
Magnetizability                         ...  NO

EPR properties:
g-Tensor (aka g-matrix)                 ...  NO
Zero-Field splitting spin-orbit         ...  NO
Zero-field splitting spin-spin          ...  NO
Hyperfine couplings                     ...  NO (   0 nuclei)
Quadrupole couplings                    ...  NO (   0 nuclei)
Contact density                         ...  NO (   0 nuclei)

NMR properties:
Chemical shifts                         ...  NO (   0 nuclei)
Spin-rotation constants                 ...  NO (   0 nuclei)
Spin-spin couplings                     ...  NO (   0 nuclei,    0 pairs)

Choice of magnetic origin               ... GIAO
Position of magnetic origin             ...     0.000000     0.000000     0.000000

Properties with geometric perturbations:
SCF Hessian                             ...  NO
IR spectrum                             ...  NO
VCD spectrum                            ...  NO
X-ray spectroscopy properties:
SCF XES/XAS/RIXS spectra                ...  NO

SCF SOC stabilization energy            ...  NO
Diagonal Born-Oppenheimer correction    ...  NO

-------------
DIPOLE MOMENT
-------------

Method             : SCF
Type of density    : Electron Density
Multiplicity       :   1
Irrep              :   0
Energy             :  -436.8177438342991650 Eh
Basis              : AO
                                X                 Y                 Z
Electronic contribution:     -5.378791828       2.859722412       0.000134080
Nuclear contribution   :      6.925235588      -3.678695937      -0.000143699
                        -----------------------------------------
Total Dipole Moment    :      1.546443760      -0.818973525      -0.000009619
                        -----------------------------------------
Magnitude (a.u.)       :      1.749915980
Magnitude (Debye)      :      4.447932938



--------------------
Rotational spectrum 
--------------------
 
Rotational constants in cm-1:             0.130948             0.042147             0.031885 
Rotational constants in MHz :          3925.720307          1263.536468           955.876918 

Dipole components along the rotational axes: 
x,y,z [a.u.] :    -1.749915     0.002191     0.000014 
x,y,z [Debye]:    -4.447929     0.005568     0.000035 

 

Dipole moment calculation done in   0.0 sec 

Maximum memory used throughout the entire PROP-calculation: 24.7 MB

--------------------------------
SUGGESTED CITATIONS FOR THIS RUN
--------------------------------

Below you find a list of papers that are relevant to this ORCA run
We neither can nor want to force you to cite these papers, but we appreciate if you do
You receive ORCA, which is the product of decades of hard work by many enthusiastic individuals, for free
The only thing we kindly ask in return is that you cite our papers,
We deeply appreciate it, if you show your appreciation for ORCA by not just citing the generic ORCA reference.

Please note that relegating all ORCA citations to the supporting information does *not* help us.
SI sections are not indexed - citations you put there will not count into any citation statistics
But we need these citations in order to attract the funding resources that allow us to do what we are doing

Therefore, if you are a happy ORCA user, please consider citing a few of the papers listed below in the main body of your paper

In addition to the list printed below, the program has created the file HOMO_LUMO.bibtex that contains the list in bibtex format
You can import this file easily into all common literature databanks and citation aid programs


List of essential papers. We consider these as the minimum necessary citations

  1. Neese, F.
     Software update: the ORCA program system, version 6.0
     WIRES Comput. Molec. Sci. 2025 15(1), e70019
     doi.org/10.1002/wcms.7019

List of papers to cite with high priority. The work reported in these papers was absolutely
necessary for this run to complete.
Our perspective: the developers of density functionals and basis sets usually get cited in chemistry papers
Good! But without the algorithms to do something with them, the functionals or basis sets would not do anything.
Hence, in our opinion, the algorithm design and method developments papers are equally worthy of getting cited

  1. Neese, F.
     An improvement of the resolution of the identity approximation for the formation of the Coulomb matrix
     J. Comp. Chem. 2003 24(14), 1740-1747
     doi.org/10.1002/jcc.10318
  2. Neese, F.
     The SHARK Integral Generation and Digestion System
     J. Comp. Chem. 2022 44(3), 381
     doi.org/10.1002/jcc.26942

List of suggested additional citations. These are papers that are important in the 'surrounding' of 
of this run, or papers that preceded the highly important papers. If you like your results we are grateful for a citation.

  1. Neese, F.
     The ORCA program system
     WIRES Comput. Molec. Sci. 2012 2(1), 73-78
     doi.org/10.1002/wcms.81
  2. Neese, F.
     Software update: the ORCA program system, version 4.0
     WIRES Comput. Molec. Sci. 2018 8(1), 1-6
     doi.org/10.1002/wcms.1327
  3. Neese, F.; Wennmohs, F.; Becker, U.; Riplinger, C.
     The ORCA quantum chemistry program package
     J. Chem. Phys. 2020 152(22), 224108
     doi.org/10.1063/5.0004608
  4. Neese, F.
     Software update: The ORCA program system—Version 5.0
     WIRES Comput. Molec. Sci. 2022 12(1), e1606
     doi.org/10.1002/wcms.1606

List of optional additional citations

  1. Neese, F.
     Approximate second-order SCF convergence for spin unrestricted wavefunctions
     Chem. Phys. Lett. 2000 325(1-3), 93-98
     doi.org/10.1016/s0009-2614(00)00662-x

Timings for individual modules:

Sum of individual times          ...        9.044 sec (=   0.151 min)
Startup calculation              ...        0.469 sec (=   0.008 min)   5.2 %
SCF iterations                   ...        8.517 sec (=   0.142 min)  94.2 %
Property calculations            ...        0.058 sec (=   0.001 min)   0.6 %
                             ****ORCA TERMINATED NORMALLY****
TOTAL RUN TIME: 0 days 0 hours 0 minutes 9 seconds 137 msec
