
                                 *****************
                                 * O   R   C   A *
                                 *****************

                                            #,                                       
                                            ###                                      
                                            ####                                     
                                            #####                                    
                                            ######                                   
                                           ########,                                 
                                     ,,################,,,,,                         
                               ,,#################################,,                 
                          ,,##########################################,,             
                       ,#########################################, ''#####,          
                    ,#############################################,,   '####,        
                  ,##################################################,,,,####,       
                ,###########''''           ''''###############################       
              ,#####''   ,,,,##########,,,,          '''####'''          '####       
            ,##' ,,,,###########################,,,                        '##       
           ' ,,###''''                  '''############,,,                           
         ,,##''                                '''############,,,,        ,,,,,,###''
      ,#''                                            '''#######################'''  
     '                                                          ''''####''''         
             ,#######,   #######,   ,#######,      ##                                
            ,#'     '#,  ##    ##  ,#'     '#,    #''#        ,####,    ,#,          
            ##       ##  ##   ,#'  ##            #'  '#       #'       ,# #          
            ##       ##  #######   ##           ,######,      #####,      #          
            '#,     ,#'  ##    ##  '#,     ,#' ,#      #,     #,   #      #          
             '#######'   ##     ##  '#######'  #'      '#     '####' #    #          



                #########################################################
                #                        -***-                          #
                #          Department of theory and spectroscopy        #
                #                                                       #
                #                      Frank Neese                      #
                #                                                       #
                #     Directorship, Architecture, Infrastructure        #
                #                    SHARK, DRIVERS                     #
                #        Core code/Algorithms in most modules           #
                #                                                       #
                #        Max Planck Institute fuer Kohlenforschung      #
                #                Kaiser Wilhelm Platz 1                 #
                #                 D-45470 Muelheim/Ruhr                 #
                #                      Germany                          #
                #                                                       #
                #                  All rights reserved                  #
                #                        -***-                          #
                #########################################################


                         Program Version 6.1.0  -  RELEASE   -
                                (GIT: $679e74b7b5$)
                          ($2025-06-10 18:02:51 +0200$)


 With contributions from (in alphabetic order):
[Max-Planck-Institut fuer Kohlenforschung]                               
  Daniel Aravena         : Magnetic Suceptibility                        
  Michael Atanasov       : Ab Initio Ligand Field Theory (pilot matlab implementation)
  Alexander A. Auer      : GIAO ZORA, VPT2 properties, NMR spectrum      
  Ute Becker             : All parallelization in ORCA, NUMFREQ, NUMCALC 
  Giovanni Bistoni       : ED, misc. LED, open-shell LED, HFLD           
  Dmytro Bykov           : pre 5.0 version of the SCF Hessian            
  Marcos Casanova-Páez   : Triplet and SCS-CIS(D). UHF-(DLPNO)-IP/EA/STEOM-CCSD. UHF-CVS-IP/STEOM-CCSD   
  Vijay G. Chilkuri      : MRCI spin determinant printing, contributions to CSF-ICE 
  Pauline Colinet        : FMM embedding                                 
  Dipayan Datta          : RHF DLPNO-CCSD density                        
  Achintya Kumar Dutta   : EOM-CC, STEOM-CC                              
  Nicolas Foglia         : Exact transition moments, OPA infrastructure, MCD improvements    
  Dmitry Ganyushin       : Spin-Orbit,Spin-Spin,Magnetic field MRCI      
  Miquel Garcia-Rates    : C-PCM and meta-GGA Hessian, CCSD/C-PCM, Gaussian charge scheme 
  Tiago L. C. Gouveia    : GS-ROHF, GS-ROCIS                             
  Yang Guo               : DLPNO-NEVPT2, F12-NEVPT2, CIM, IAO-localization        
  Andreas Hansen         : Spin unrestricted coupled pair/coupled cluster methods 
  Ingolf Harden          : AUTO-CI MPn and infrastructure                
  Benjamin Helmich-Paris : MC-RPA, TRAH-(SCF,CASSCF), AVAS, COSX integrals, SCF dyn. polar., MC-PDFT, srDFT 
  Lee Huntington         : MR-EOM, pCC                                   
  Robert Izsak           : Overlap fitted RIJCOSX, COSX-SCS-MP3, EOM     
  Riya Kayal             : Wick's Theorem for AUTO-CI, AUTO-CI UHF-CCSDT 
  Emily Kempfer          : AUTO-CI RHF CISDT and CCSDT, approximate NEVPT4
  Christian Kollmar      : KDIIS, OOCD, Brueckner-CCSD(T), CCSD density, CASPT2, CASPT2-K, improved NEVPT2 
  Axel Koslowski         : Symmetry handling                             
  Simone Kossmann        : meta-GGA functionals, TD-DFT gradient, OOMP2, (MP2 Hessian; deprecated post 5.0) 
  Lucas Lang             : DCDCAS, Hyperfine gauge corrections, ICE-SOC+SSC
  Marvin Lechner         : AUTO-CI (C++ implementation), FIC-MRCC        
  Spencer Leger          : CASSCF response                               
  Dagmar Lenk            : GEPOL surface, SMD, ORCA-2-JSON               
  Dimitrios Liakos       : Extrapolation schemes; Compound Job, Property file
  Dimitrios Manganas     : Further ROCIS development; embedding schemes. LFT, Crystal Embedding 
  Dimitrios Pantazis     : SARC Basis sets                               
  Anastasios Papadopoulos: AUTO-CI, single reference methods and gradients 
  Taras Petrenko         : pre 6.0 DFT Hessian and TD-DFT gradient,  ECA, NRVS 
  Petra Pikulova         : Analytic Raman intensities                    
  Peter Pinski           : DLPNO-MP2, DLPNO-MP2 Gradient                 
  Shashank Vittal Rao    : ES-AILFT, MagRelax                            
  Christoph Reimann      : Effective Core Potentials                     
  Marius Retegan         : Local ZFS, SOC                                
  Christoph Riplinger    : Optimizer, TS searches, QM/MM, DLPNO-CCSD(T), (RO)-DLPNO pert. Triples 
  Michael Roemelt        : Original ROCIS implementation, recursive CI coupling coefficients
  Masaaki Saitow         : Open-shell DLPNO-CCSD energy and density      
  Barbara Sandhoefer     : DKH picture change effects                    
  Yorick L. A. Schmerwitz: GMF and freeze-and-release deltaSCF, NEB S-IDPP initial path                    
  Kantharuban Sivalingam : CASSCF convergence/infrastructure, NEVPT2, NEVPT3, NEVPT4(SD), FIC-MRCI and CEPA variants
  Bernardo de Souza      : ESD, SOC TD-DFT                               
  Georgi L. Stoychev     : AutoAux, RI-MP2 NMR, DLPNO-MP2 response, X2C  
  Van Anh Tran           : RI-MP2 g-tensors                              
  Willem Van den Heuvel  : Paramagnetic NMR                              
  Zikuan Wang            : NOTCH, Electric field optimization            
  Frank Wennmohs         : Technical directorship and infrastructure     
  Hang Xu                : AUTO-CI-Response properties                   
                                                                         
[FACCTs GmbH]                                                            
  Markus Bursch, Nicolas Foglia, Miquel Garcia-Rates, Ingolf Harden, Hagen Neugebauer, Anastasios Papadopoulos, 
  Christoph Riplinger, Bernardo de Souza, Georgi L. Stoychev                                                    
                                                                 
  APM, various basis sets, CI-OPT, improved COSX, DLPNO-Multilevel,           
  DOCKER, DRACO, updates on ESD, Fragmentator, GOAT, IRC, LR-CPCM, L-BFGS, MBIS, meta-GGA TD-DFT gradient, ML-optimized integration grids, 
  MM, NACMEs, nearIR, NEB, NEB-TS, NL-DFT gradient (VV10), 2- and 3-layer-ONIOM, interface openCOSMO-RS, QMMM,   
  Crystal-QMMM, RESP, rigid body optimization, SF, symmetry and pop. for TD-DFT, various functionals, SOLVATOR                                   
                                                                         
[Other institutions]                                                     
  V. Asgeirsson          : NEB                                           
  Christoph Bannwarth    : sTDA-DFT, sTD-DFT, PBEh-3c, B97-3c, D3        
  Giovanni Bistoni       : ETS/NOCV, ADLD/ADEX, COVALED                  
  Martin Brehm           : Molecular dynamics                            
  Ronald Cardenas        : ETS/NOCV                                      
  Martina Colucci        : COVALED                                       
  Sebastian Ehlert       : rSCAN, r2SCAN, r2SCAN-3c, D4, dhf basis sets  
  Marvin Friede          : D4 for Fr, Ra, Ac-Lr                          
  Lars Goerigk           : TD-DFT with DH, B97 family of functionals     
  Stefan Grimme          : VdW corrections, initial TS optimization, DFT functionals, gCP, sTDA/sTD-DF 
  Waldemar Hujo          : DFT-NL                                        
  H. Jonsson             : NEB                                           
  Holger Kruse           : gCP                                           
  Marcel Mueller         : wB97X-3c, vDZP basis set                      
  Hagen Neugebauer       : wr2SCAN, Native XTB                           
  Gianluca Regni         : ADLD/ADEX                                     
  Tobias Risthaus        : pre 6.0 range-separated hybrid DFT and stability analysis
  Lukas Wittmann         : regularized MP2, r2SCAN double-hybrids, wr2SCAN        
                                                                         
We gratefully acknowledge several colleagues who have allowed us to      
interface, adapt or use parts of their codes:                            
  Ed Valeev, F. Pavosevic, A. Kumar             : LibInt (2-el integral package), F12 methods 
  Garnet Chan, S. Sharma, J. Yang, R. Olivares  : DMRG                   
  Ulf Ekstrom                                   : XCFun DFT Library      
  Mihaly Kallay                                 : mrcc  (arbitrary order and MRCC methods)
  Frank Weinhold                                : gennbo (NPA and NBO analysis)           
  Simon Mueller                                 : openCOSMO-RS                            
  Christopher J. Cramer and Donald G. Truhlar   : smd solvation model                     
  S Lehtola, MJT Oliveira, MAL Marques          : LibXC Library                           
  Liviu Ungur et al                             : ANISO software                          


 Your calculation uses the libint2 library for the computation of 2-el integrals
 For citations please refer to: http://libint.valeyev.net

 Your ORCA version has been built with support for libXC version: 7.0.0
 For citations please refer to: https://libxc.gitlab.io

 This ORCA versions uses:
   CBLAS   interface :  Fast vector & matrix operations
   LAPACKE interface :  Fast linear algebra routines
   SCALAPACK package :  Parallel linear algebra routines
   Shared memory     :  Shared parallel matrices


  ***********************************
  * Starting time: Thu Jul  3 14:46:58 2025
  * Host name:     MacBook-Air-3.local
  * Process ID:    49005
  * Working dir.:  /Users/blenl/Desktop/DFT/Nitrobenzene/GeometryOptimization
  ***********************************

NOTE: MaxCore=16384 MB was set to SCF,MP2,MDCI,CIPSI,MRCI,RASCI and CIS
      => If you want to overwrite this, your respective input block should be placed after the MaxCore statement
Warning: RI is on but no J-basis has been assigned. Assigning Def2/J (nothing to worry about!)
================================================================================

----- Orbital basis set information -----
Your calculation utilizes the basis: def2-TZVP
   F. Weigend and R. Ahlrichs, Phys. Chem. Chem. Phys. 7, 3297 (2005).

----- AuxJ basis set information -----
Your calculation utilizes the auxiliary basis: def2/J
   H-Rn: F. Weigend, Phys. Chem. Chem. Phys. 8, 1057 (2006).
   Fr-Lr: K. Eichkorn, F. Weigend, O. Treutler, R. Ahlrichs; Theor. Chem. Acc. 97, 119 (1997).

================================================================================
                                        WARNINGS
                       Please study these warnings very carefully!
================================================================================


WARNING: Geometry Optimization
  ===> : Switching off AutoStart
         For restart on a previous wavefunction, please use MOREAD

================================================================================
                                       INPUT FILE
================================================================================
NAME = nitrobenzene.inp
|  1> # avogadro generated ORCA file
|  2> # C6H5NO2 | Geometry Optimization | revPBE/def2-TZVP
|  3> # 
|  4> ! Opt revPBE def2-TZVP 
|  5> 
|  6> %maxcore 16384
|  7> 
|  8> %pal
|  9>    nprocs 1
| 10> end
| 11> 
| 12> * xyz 0 1
| 13>    C     -3.101753    1.097412   -0.000098
| 14>    C     -3.059846   -0.303528   -0.000105
| 15>    C     -1.917411    1.846871   -0.000114
| 16>    C     -0.687648    1.186150   -0.000138
| 17>    C     -0.642586   -0.209314   -0.000145
| 18>    C     -1.824172   -0.952916   -0.000128
| 19>    H     -1.935465    2.934717   -0.000109
| 20>    H      0.237300    1.758634   -0.000152
| 21>    H      0.318179   -0.719980   -0.000165
| 22>    H     -1.781391   -2.039949   -0.000134
| 23>    H     -3.971462   -0.897386   -0.000092
| 24>    N     -4.398501    1.785497   -0.000076
| 25>    O     -4.394401    3.025034   -0.000058
| 26>    O     -5.422625    1.086995   -0.000077
| 27> *
| 28> 
| 29> 
| 30> 
| 31>                          ****END OF INPUT****
================================================================================

                       *****************************
                       * Geometry Optimization Run *
                       *****************************

Geometry optimization settings:
Update method            Update   .... BFGS
Choice of coordinates    CoordSys .... (2022) Redundant Internals
Initial Hessian          InHess   .... Almloef's Model
Max. no of cycles        MaxIter  .... 50

Convergence Tolerances:
Energy Change            TolE     ....  5.0000e-06 Eh
Max. Gradient            TolMAXG  ....  3.0000e-04 Eh/bohr
RMS Gradient             TolRMSG  ....  1.0000e-04 Eh/bohr
Max. Displacement        TolMAXD  ....  4.0000e-03 bohr
RMS Displacement         TolRMSD  ....  2.0000e-03 bohr
Strict Convergence                .... False

------------------------------------------------------------------------------
                        ORCA OPTIMIZATION COORDINATE SETUP
------------------------------------------------------------------------------

The optimization will be done in redundant internal coordinates (2022)
Making redundant internal coordinates   ...  (2022 redundants) done
Evaluating the initial hessian          ...  (Almloef) done
Evaluating the coordinates              ...  done
Calculating the B-matrix                .... done
Calculating the G-matrix                .... done
The number of degrees of freedom        ....   63

    -----------------------------------------------------------------
                    Redundant Internal Coordinates


    -----------------------------------------------------------------
         Definition                    Initial Value    Approx d2E/dq
    -----------------------------------------------------------------
      1. B(C   1,C   0)                  1.4016         0.598804   
      2. B(C   2,C   0)                  1.4016         0.598831   
      3. B(C   3,C   2)                  1.3960         0.611133   
      4. B(C   4,C   3)                  1.3962         0.610746   
      5. B(C   5,C   4)                  1.3961         0.610956   
      6. B(C   5,C   1)                  1.3959         0.611353   
      7. B(H   6,C   2)                  1.0880         0.362761   
      8. B(H   7,C   3)                  1.0878         0.363048   
      9. B(H   8,C   4)                  1.0880         0.362691   
     10. B(H   9,C   5)                  1.0879         0.362923   
     11. B(H  10,C   1)                  1.0880         0.362776   
     12. B(N  11,C   0)                  1.4680         0.420180   
     13. B(O  12,N  11)                  1.2395         0.871075   
     14. B(O  13,N  11)                  1.2397         0.870732   
     15. A(C   1,C   0,N  11)          119.6649         0.399923   
     16. A(C   1,C   0,C   2)          120.6125         0.428678   
     17. A(C   2,C   0,N  11)          119.7226         0.399927   
     18. A(C   0,C   1,C   5)          119.4368         0.430273   
     19. A(C   5,C   1,H  10)          119.1950         0.352513   
     20. A(C   0,C   1,H  10)          121.3682         0.351278   
     21. A(C   0,C   2,H   6)          121.3751         0.351279   
     22. A(C   0,C   2,C   3)          119.4261         0.430249   
     23. A(C   3,C   2,H   6)          119.1988         0.352489   
     24. A(C   2,C   3,C   4)          120.0976         0.431774   
     25. A(C   4,C   3,H   7)          119.9053         0.352498   
     26. A(C   2,C   3,H   7)          119.9971         0.352536   
     27. A(C   5,C   4,H   8)          119.8252         0.352460   
     28. A(C   3,C   4,H   8)          119.8411         0.352439   
     29. A(C   3,C   4,C   5)          120.3337         0.431752   
     30. A(C   4,C   5,H   9)          119.9295         0.352498   
     31. A(C   1,C   5,H   9)          119.9772         0.352537   
     32. A(C   1,C   5,C   4)          120.0933         0.431829   
     33. A(O  12,N  11,O  13)          124.4854         0.478233   
     34. A(C   0,N  11,O  13)          117.7527         0.421818   
     35. A(C   0,N  11,O  12)          117.7620         0.421848   
     36. D(H  10,C   1,C   0,C   2)    180.0000         0.024713   
     37. D(C   5,C   1,C   0,C   2)      0.0000         0.024713   
     38. D(C   5,C   1,C   0,N  11)    179.9999         0.024713   
     39. D(H  10,C   1,C   0,N  11)     -0.0002         0.024713   
     40. D(C   3,C   2,C   0,C   1)      0.0000         0.024716   
     41. D(C   3,C   2,C   0,N  11)   -179.9999         0.024716   
     42. D(H   6,C   2,C   0,N  11)      0.0001         0.024716   
     43. D(H   6,C   2,C   0,C   1)    180.0000         0.024716   
     44. D(H   7,C   3,C   2,H   6)     -0.0000         0.025800   
     45. D(H   7,C   3,C   2,C   0)    179.9999         0.025800   
     46. D(C   4,C   3,C   2,H   6)   -180.0000         0.025800   
     47. D(C   4,C   3,C   2,C   0)     -0.0000         0.025800   
     48. D(H   8,C   4,C   3,C   2)    179.9999         0.025765   
     49. D(C   5,C   4,C   3,H   7)   -180.0000         0.025765   
     50. D(C   5,C   4,C   3,C   2)     -0.0000         0.025765   
     51. D(H   8,C   4,C   3,H   7)     -0.0000         0.025765   
     52. D(H   9,C   5,C   4,H   8)      0.0000         0.025784   
     53. D(C   1,C   5,C   4,H   8)   -179.9999         0.025784   
     54. D(C   1,C   5,C   4,C   3)      0.0001         0.025784   
     55. D(H   9,C   5,C   1,H  10)      0.0001         0.025820   
     56. D(H   9,C   5,C   1,C   0)   -180.0000         0.025820   
     57. D(H   9,C   5,C   4,C   3)    180.0000         0.025784   
     58. D(C   4,C   5,C   1,H  10)    180.0000         0.025820   
     59. D(C   4,C   5,C   1,C   0)     -0.0001         0.025820   
     60. D(O  13,N  11,C   0,C   2)    179.9992         0.013914   
     61. D(O  13,N  11,C   0,C   1)     -0.0007         0.013914   
     62. D(O  12,N  11,C   0,C   2)     -0.0008         0.013914   
     63. D(O  12,N  11,C   0,C   1)    179.9994         0.013914   
    -----------------------------------------------------------------

Number of atoms                         .... 14
Number of degrees of freedom            .... 63


         *************************************************************
         *                GEOMETRY OPTIMIZATION CYCLE   1            *
         *************************************************************
---------------------------------
CARTESIAN COORDINATES (ANGSTROEM)
---------------------------------
  C     -3.101753    1.097412   -0.000098
  C     -3.059846   -0.303528   -0.000105
  C     -1.917411    1.846871   -0.000114
  C     -0.687648    1.186150   -0.000138
  C     -0.642586   -0.209314   -0.000145
  C     -1.824172   -0.952916   -0.000128
  H     -1.935465    2.934717   -0.000109
  H      0.237300    1.758634   -0.000152
  H      0.318179   -0.719980   -0.000165
  H     -1.781391   -2.039949   -0.000134
  H     -3.971462   -0.897386   -0.000092
  N     -4.398501    1.785497   -0.000076
  O     -4.394401    3.025034   -0.000058
  O     -5.422625    1.086995   -0.000077

----------------------------
CARTESIAN COORDINATES (A.U.)
----------------------------
  NO LB      ZA    FRAG     MASS         X           Y           Z
   0 C     6.0000    0    12.011   -5.861464    2.073808   -0.000185
   1 C     6.0000    0    12.011   -5.782271   -0.573585   -0.000198
   2 C     6.0000    0    12.011   -3.623382    3.490080   -0.000215
   3 C     6.0000    0    12.011   -1.299466    2.241499   -0.000261
   4 C     6.0000    0    12.011   -1.214312   -0.395546   -0.000274
   5 C     6.0000    0    12.011   -3.447186   -1.800750   -0.000242
   6 H     1.0000    0     1.008   -3.657499    5.545811   -0.000206
   7 H     1.0000    0     1.008    0.448432    3.323337   -0.000287
   8 H     1.0000    0     1.008    0.601271   -1.360565   -0.000312
   9 H     1.0000    0     1.008   -3.366341   -3.854945   -0.000253
  10 H     1.0000    0     1.008   -7.504976   -1.695814   -0.000174
  11 N     7.0000    0    14.007   -8.311962    3.374100   -0.000144
  12 O     8.0000    0    15.999   -8.304214    5.716486   -0.000110
  13 O     8.0000    0    15.999  -10.247276    2.054123   -0.000146

--------------------------------
INTERNAL COORDINATES (ANGSTROEM)
--------------------------------
 C      0   0   0     0.000000000000     0.00000000     0.00000000
 C      1   0   0     1.401566652107     0.00000000     0.00000000
 C      1   2   0     1.401554410610   120.61247801     0.00000000
 C      3   1   2     1.396019081741   119.42608661     0.00000000
 C      4   3   1     1.396191376277   120.09756912     0.00000000
 C      2   1   3     1.395920846377   119.43683277     0.00000000
 H      3   1   2     1.087995802684   121.37508446   179.99998772
 H      4   3   1     1.087780645698   119.99709662   179.99991251
 H      5   4   3     1.088048321161   119.84108592   179.99992263
 H      6   2   1     1.087874513483   119.97718248   180.00002443
 H      2   1   3     1.087984860092   121.36819821   179.99995307
 N      1   2   3     1.467997392100   119.66487912   179.99989586
 O     12   1   2     1.239543780870   117.76195773   179.99935199
 O     12   1   2     1.239651165200   117.75265111     0.00000000

---------------------------
INTERNAL COORDINATES (A.U.)
---------------------------
 C      0   0   0     0.000000000000     0.00000000     0.00000000
 C      1   0   0     2.648577130919     0.00000000     0.00000000
 C      1   2   0     2.648553997843   120.61247801     0.00000000
 C      3   1   2     2.638093742219   119.42608661     0.00000000
 C      4   3   1     2.638419331705   120.09756912     0.00000000
 C      2   1   3     2.637908104283   119.43683277     0.00000000
 H      3   1   2     2.056014101928   121.37508446   179.99998772
 H      4   3   1     2.055607514150   119.99709662   179.99991251
 H      5   4   3     2.056113347467   119.84108592   179.99992263
 H      6   2   1     2.055784898556   119.97718248   180.00002443
 H      2   1   3     2.055993423426   121.36819821   179.99995307
 N      1   2   3     2.774113036380   119.66487912   179.99989586
 O     12   1   2     2.342398276849   117.76195773   179.99935199
 O     12   1   2     2.342601203824   117.75265111     0.00000000

---------------------
BASIS SET INFORMATION
---------------------
There are 4 groups of distinct atoms

 Group   1 Type C   : 11s6p2d1f contracted to 5s3p2d1f pattern {62111/411/11/1}
 Group   2 Type H   : 5s1p contracted to 3s1p pattern {311/1}
 Group   3 Type N   : 11s6p2d1f contracted to 5s3p2d1f pattern {62111/411/11/1}
 Group   4 Type O   : 11s6p2d1f contracted to 5s3p2d1f pattern {62111/411/11/1}

Atom   0C    basis set group =>   1
Atom   1C    basis set group =>   1
Atom   2C    basis set group =>   1
Atom   3C    basis set group =>   1
Atom   4C    basis set group =>   1
Atom   5C    basis set group =>   1
Atom   6H    basis set group =>   2
Atom   7H    basis set group =>   2
Atom   8H    basis set group =>   2
Atom   9H    basis set group =>   2
Atom  10H    basis set group =>   2
Atom  11N    basis set group =>   3
Atom  12O    basis set group =>   4
Atom  13O    basis set group =>   4
---------------------------------
AUXILIARY/J BASIS SET INFORMATION
---------------------------------
There are 4 groups of distinct atoms

 Group   1 Type C   : 12s5p4d2f1g contracted to 6s4p3d1f1g pattern {711111/2111/211/2/1}
 Group   2 Type H   : 5s2p1d contracted to 3s1p1d pattern {311/2/1}
 Group   3 Type N   : 12s5p4d2f1g contracted to 6s4p3d1f1g pattern {711111/2111/211/2/1}
 Group   4 Type O   : 12s5p4d2f1g contracted to 6s4p3d1f1g pattern {711111/2111/211/2/1}

Atom   0C    basis set group =>   1
Atom   1C    basis set group =>   1
Atom   2C    basis set group =>   1
Atom   3C    basis set group =>   1
Atom   4C    basis set group =>   1
Atom   5C    basis set group =>   1
Atom   6H    basis set group =>   2
Atom   7H    basis set group =>   2
Atom   8H    basis set group =>   2
Atom   9H    basis set group =>   2
Atom  10H    basis set group =>   2
Atom  11N    basis set group =>   3
Atom  12O    basis set group =>   4
Atom  13O    basis set group =>   4
------------------------------------------------------------------------------
                             ORCA STARTUP CALCULATIONS
                           -- RI-GTO INTEGRALS CHOSEN --
------------------------------------------------------------------------------
------------------------------------------------------------------------------
                   ___                                                        
                  /   \      - P O W E R E D   B Y -                         
                 /     \                                                     
                 |  |  |   _    _      __       _____    __    __             
                 |  |  |  | |  | |    /  \     |  _  \  |  |  /  |          
                  \  \/   | |  | |   /    \    | | | |  |  | /  /          
                 / \  \   | |__| |  /  /\  \   | |_| |  |  |/  /          
                |  |  |   |  __  | /  /__\  \  |    /   |      \           
                |  |  |   | |  | | |   __   |  |    \   |  |\   \          
                \     /   | |  | | |  |  |  |  | |\  \  |  | \   \       
                 \___/    |_|  |_| |__|  |__|  |_| \__\ |__|  \__/        
                                                                              
                      - O R C A' S   B I G   F R I E N D -                    
                                      &                                       
                       - I N T E G R A L  F E E D E R -                       
                                                                              
 v1 FN, 2020, v2 2021, v3 2022-2024                                           
------------------------------------------------------------------------------


----------------------
SHARK INTEGRAL PACKAGE
----------------------

Number of atoms                             ...     14
Number of basis functions                   ...    309
Number of shells                            ...    119
Maximum angular momentum                    ...      3
Integral batch strategy                     ... SHARK/LIBINT Hybrid
RI-J (if used) integral strategy            ... SPLIT-RIJ (Revised 2003 algorithm where possible)
Printlevel                                  ...      1
Contraction scheme used                     ... SEGMENTED contraction
Prescreening option                         ... SCHWARTZ
   Thresh                                   ... 2.500e-11
   Tcut                                     ... 2.500e-12
   Tpresel                                  ... 2.500e-12 
Coulomb Range Separation                    ... NOT USED
Exchange Range Separation                   ... NOT USED
Multipole approximations                    ... NOT USED
Finite Nucleus Model                        ... NOT USED
CABS basis                                  ... NOT available
Auxiliary Coulomb fitting basis             ... AVAILABLE
   # of basis functions in Aux-J            ...    496
   # of shells in Aux-J                     ...    160
   Maximum angular momentum in Aux-J        ...      4
Auxiliary J/K fitting basis                 ... NOT available
Auxiliary Correlation fitting basis         ... NOT available
Auxiliary 'external' fitting basis          ... NOT available

Checking pre-screening integrals            ... done (  0.0 sec) Dimension = 119
   => SHARK Basis and OBASIS are compatible. Storing Pre-screening
Shell pair information
Shell pair cut-off parameter TPreSel        ...   2.5e-12
Total number of shell pairs                 ...      7140
Shell pairs after pre-screening             ...      6450
Total number of primitive shell pairs       ...     22368
Primitive shell pairs kept                  ...     15031
          la=0 lb=0:   1563 shell pairs
          la=1 lb=0:   1765 shell pairs
          la=1 lb=1:    506 shell pairs
          la=2 lb=0:    975 shell pairs
          la=2 lb=1:    547 shell pairs
          la=2 lb=2:    160 shell pairs
          la=3 lb=0:    473 shell pairs
          la=3 lb=1:    271 shell pairs
          la=3 lb=2:    149 shell pairs
          la=3 lb=3:     41 shell pairs

Checking whether 4 symmetric matrices of dimension 309 fit in memory
:Max Core in MB      =  16384.00
 MB in use           =      9.90
 MB left             =  16374.10
 MB needed           =      1.46
 Data fit in memory  = YES
Calculating RI/J V-Matrix + Cholesky decomp.... done (  0.0 sec)
Calculating Nuclear repulsion               ... done (  0.0 sec) ENN=    410.140939582013 Eh

Diagonalization of the overlap matrix:
Smallest eigenvalue                        ... 9.586e-06
Time for diagonalization                   ...    0.009 sec
Threshold for overlap eigenvalues          ... 1.000e-07
Number of eigenvalues below threshold      ... 0
Time for construction of square roots      ...    0.001 sec
Total time needed                          ...    0.010 sec

-------------------
DFT GRID GENERATION
-------------------

General Integration Accuracy     IntAcc      ... 4.388
Radial Grid Type                 RadialGrid  ... OptM3 with GC (2021)
Angular Grid (max. ang.)         AngularGrid ... 4 (Lebedev-302)
Angular grid pruning method      GridPruning ... 4 (adaptive)
Weight generation scheme         WeightScheme... mBecke (2022)
Basis function cutoff            BFCut       ... 1.0000e-11
Integration weight cutoff        WCut        ... 1.0000e-14
Partially contracted basis set               ... off
Rotationally invariant grid construction     ... off
Angular grids for H and He will be reduced by one unit

Total number of grid points                  ...    70385
Total number of batches                      ...     1106
Average number of points per batch           ...       63
Average number of grid points per atom       ...     5028
Grids setup in   0.3 sec
Initializing property integral containers    ... done (  0.0 sec)

SHARK setup successfully completed in   0.4 seconds

Maximum memory used throughout the entire STARTUP-calculation: 43.0 MB
-------------------------------------------------------------------------------
                                 ORCA GUESS
                   Start orbitals & Density for SCF / CASSCF
-------------------------------------------------------------------------------

------------
SCF SETTINGS
------------
Hamiltonian:
 Density Functional     Method          .... DFT(GTOs)
 Exchange Functional    Exchange        .... PBE
   PBE kappa parameter   XKappa         ....  1.245000
   PBE mue parameter    XMuePBE         ....  0.219520
 Correlation Functional Correlation     .... PBE
   PBE beta parameter  CBetaPBE         ....  0.066725
 LDA part of GGA corr.  LDAOpt          .... PW91-LDA
 Gradients option       PostSCFGGA      .... off
   NL short-range parameter             ....  3.700000
 RI-approximation to the Coulomb term is turned on
   Number of AuxJ basis functions       .... 496


General Settings:
 Integral files         IntName         .... nitrobenzene
 Hartree-Fock type      HFTyp           .... RHF
 Total Charge           Charge          ....    0
 Multiplicity           Mult            ....    1
 Number of Electrons    NEL             ....   64
 Basis Dimension        Dim             ....  309
 Nuclear Repulsion      ENuc            ....    410.1409395820 Eh

Convergence Acceleration:
 AO-DIIS                CNVDIIS         .... on
   Start iteration      DIISMaxIt       ....    12
   Startup error        DIISStart       ....  0.200000
   # of expansion vecs  DIISMaxEq       ....     5
   Bias factor          DIISBfac        ....   1.050
   Max. coefficient     DIISMaxC        ....  10.000
 MO-DIIS                CNVKDIIS        .... off
 Trust-Rad. Augm. Hess. CNVTRAH         .... auto
   Auto Start mean grad. ratio tolernc. ....  1.125000
   Auto Start start iteration           ....    50
   Auto Start num. interpolation iter.  ....    10
   Max. Number of Micro iterations      ....    24
   Max. Number of Macro iterations      .... Maxiter - #DIIS iter
   Number of Davidson start vectors     ....     2
   Converg. threshold    (grad. norm)   ....   1.000e-05
   Grad. Scal. Fac. for Micro threshold ....   0.100
   Minimum threshold for Micro iter.    ....   1.000e-02
   NR start threshold (gradient norm)   ....   1.000e-04
   Initial trust radius                 ....   0.400
   Minimum AH scaling param. (alpha)    ....   1.000
   Maximum AH scaling param. (alpha)    .... 1000.000
   Quad. conv. algorithm                .... NR
   White noise on init. David. guess    .... on
   Maximum white noise                  ....   0.010
   Pseudo random numbers                .... off
   Inactive MOs                         .... canonical
   Orbital update algorithm             .... Taylor
   Preconditioner                       .... Diag
   Full preconditioner red. dimension   ....   250
 SOSCF                 CNVSOSCF           .... on
   Start iteration     SOSCFMaxIt         ....   150
   Startup grad/error  SOSCFStart         ....  0.003300
   Hessian update      SOSCFHessUp        .... L-BFGS
   Autom. constraints  SOSCFAutoConstrain .... off
 Level Shifting         CNVShift        .... on
   Level shift para.    LevelShift      ....    0.2500
   Turn off err/grad.   ShiftErr        ....    0.0010
 Zerner damping         CNVZerner       .... off
 Static damping         CNVDamp         .... on
   Fraction old density DampFac         ....    0.7000
   Max. Damping (<1)    DampMax         ....    0.9800
   Min. Damping (>=0)   DampMin         ....    0.0000
   Turn off err/grad.   DampErr         ....    0.1000

SCF Procedure:
 Maximum # iterations   MaxIter         ....   125
 SCF integral mode      SCFMode         .... Direct
   Integral package                     .... SHARK and LIBINT hybrid scheme
 Reset frequency        DirectResetFreq ....    20
 Integral Threshold     Thresh          ....  2.500e-11 Eh
 Primitive CutOff       TCut            ....  2.500e-12 Eh

Convergence Tolerance:
 Convergence Check Mode ConvCheckMode   .... Total+1el-Energy
 Convergence forced     ConvForced      .... 0
 Energy Change          TolE            ....  1.000e-08 Eh
 1-El. energy change                    ....  1.000e-05 Eh
 Orbital Gradient       TolG            ....  1.000e-05
 Orbital Rotation angle TolX            ....  1.000e-05
 DIIS Error             TolErr          ....  5.000e-07

------------------------------
INITIAL GUESS: MODEL POTENTIAL
------------------------------
Loading Hartree-Fock densities                     ... done
Calculating cut-offs                               ... done
Initializing the effective Hamiltonian             ... done
Setting up the integral package (SHARK)            ... done
Starting the Coulomb interaction                   ... done (   0.1 sec)
Making the grid                                    ... done (   0.1 sec)
Mapping shells                                     ... done
Starting the XC term evaluation                    ... done (   0.2 sec)
  promolecular density results
     # of electrons  =     63.995953781
     EX              =    -55.325606955
     EC              =     -2.146732755
     EX+EC           =    -57.472339711
Transforming the Hamiltonian                       ... done (   0.0 sec)
Diagonalizing the Hamiltonian                      ... done (   0.0 sec)
Back transforming the eigenvectors                 ... done (   0.0 sec)
Now organizing SCF variables                       ... done
                      ------------------
                      INITIAL GUESS DONE (   0.4 sec)
                      ------------------
             **** ENERGY FILE WAS UPDATED (nitrobenzene.en.tmp) ****
Finished Guess after   0.4 sec
Maximum memory used throughout the entire GUESS-calculation: 26.7 MB

-------------------------------------------------------------------------------------------
                                      ORCA LEAN-SCF
                              memory conserving SCF solver
-------------------------------------------------------------------------------------------

----------------------------------------D-I-I-S--------------------------------------------
Iteration    Energy (Eh)           Delta-E    RMSDP     MaxDP     DIISErr   Damp  Time(sec)
-------------------------------------------------------------------------------------------
               ***  Starting incremental Fock matrix formation  ***
    1    -436.5908836378236515     0.00e+00  1.75e-03  5.96e-02  2.60e-01  0.700   1.0
Warning: op=0 Small HOMO/LUMO gap (   0.100) - skipping pre-diagonalization
         Will do a full diagonalization
    2    -436.7070484761761122    -1.16e-01  1.13e-03  3.40e-02  6.44e-02  0.700   0.9
                               ***Turning on AO-DIIS***
    3    -436.7411661874473907    -3.41e-02  4.80e-04  1.22e-02  2.47e-02  0.700   0.8
    4    -436.7637062145817595    -2.25e-02  7.20e-04  1.67e-02  2.12e-02  0.000   0.8
    5    -436.8165249581099374    -5.28e-02  3.18e-04  1.31e-02  7.51e-03  0.000   0.8
                              *** Initializing SOSCF ***
---------------------------------------S-O-S-C-F--------------------------------------
Iteration    Energy (Eh)           Delta-E    RMSDP     MaxDP     MaxGrad    Time(sec)
--------------------------------------------------------------------------------------
    6    -436.8169166786281608    -3.92e-04  1.05e-04  3.49e-03  2.07e-03     0.8
               *** Restarting incremental Fock matrix formation ***
    7    -436.8169469289532003    -3.03e-05  8.21e-05  2.36e-03  3.13e-04     0.9
    8    -436.8169433273713480     3.60e-06  2.40e-05  5.19e-04  6.82e-04     0.7
    9    -436.8169503286132453    -7.00e-06  2.55e-05  8.40e-04  1.29e-04     0.7
   10    -436.8169502430117177     8.56e-08  6.52e-06  2.63e-04  1.57e-04     0.7
   11    -436.8169505297944966    -2.87e-07  1.48e-05  5.34e-04  1.34e-04     0.7
   12    -436.8169502321709956     2.98e-07  5.88e-06  2.68e-04  2.52e-04     0.7
   13    -436.8169505799494914    -3.48e-07  1.30e-05  4.13e-04  8.53e-05     0.6
   14    -436.8169505037528211     7.62e-08  5.83e-06  1.92e-04  1.10e-04     0.7
   15    -436.8169506969123290    -1.93e-07  4.70e-06  1.33e-04  2.34e-05     0.7
   16    -436.8169506905767889     6.34e-09  3.07e-06  9.21e-05  2.43e-05     0.7
                 **** Energy Check signals convergence ****

               *****************************************************
               *                     SUCCESS                       *
               *           SCF CONVERGED AFTER  16 CYCLES          *
               *****************************************************

             **** ENERGY FILE WAS UPDATED (nitrobenzene.en.tmp) ****

----------------
TOTAL SCF ENERGY
----------------

Total Energy       :       -436.81695071717871 Eh          -11886.39352 eV

Components:
Nuclear Repulsion  :        410.14093958201300 Eh           11160.50236 eV
Electronic Energy  :       -846.95789029919172 Eh          -23046.89588 eV
One Electron Energy:      -1405.78716063184083 Eh          -38253.41341 eV
Two Electron Energy:        558.82927033264912 Eh           15206.51753 eV

Virial components:
Potential Energy   :       -871.92304546150308 Eh          -23726.23229 eV
Kinetic Energy     :        435.10609474432431 Eh           11839.83876 eV
Virial Ratio       :          2.00393204322697

DFT components:
N(Alpha)           :       32.000013676413 electrons
N(Beta)            :       32.000013676413 electrons
N(Total)           :       64.000027352825 electrons
E(X)               :      -56.193092821538 Eh       
E(C)               :       -2.149650235121 Eh       
E(XC)              :      -58.342743056659 Eh       

---------------
SCF CONVERGENCE
---------------

  Last Energy change         ...   -6.3355e-09  Tolerance :   1.0000e-08
  Last MAX-Density change    ...    9.2094e-05  Tolerance :   1.0000e-07
  Last RMS-Density change    ...    3.0740e-06  Tolerance :   5.0000e-09
  Last DIIS Error            ...    2.0718e-03  Tolerance :   5.0000e-07
  Last Orbital Gradient      ...    2.4315e-05  Tolerance :   1.0000e-05
  Last Orbital Rotation      ...    1.0385e-04  Tolerance :   1.0000e-05


----------------
ORBITAL ENERGIES
----------------

  NO   OCC          E(Eh)            E(eV) 
   0   2.0000     -18.791355      -511.3388 
   1   2.0000     -18.791333      -511.3382 
   2   2.0000     -14.218050      -386.8928 
   3   2.0000      -9.966763      -271.2094 
   4   2.0000      -9.931160      -270.2406 
   5   2.0000      -9.931099      -270.2389 
   6   2.0000      -9.928193      -270.1599 
   7   2.0000      -9.926339      -270.1094 
   8   2.0000      -9.926285      -270.1080 
   9   2.0000      -1.126150       -30.6441 
  10   2.0000      -0.962925       -26.2025 
  11   2.0000      -0.817358       -22.2414 
  12   2.0000      -0.740157       -20.1407 
  13   2.0000      -0.706888       -19.2354 
  14   2.0000      -0.642373       -17.4799 
  15   2.0000      -0.574789       -15.6408 
  16   2.0000      -0.544566       -14.8184 
  17   2.0000      -0.507504       -13.8099 
  18   2.0000      -0.480215       -13.0673 
  19   2.0000      -0.461196       -12.5498 
  20   2.0000      -0.461163       -12.5489 
  21   2.0000      -0.424513       -11.5516 
  22   2.0000      -0.420519       -11.4429 
  23   2.0000      -0.401443       -10.9238 
  24   2.0000      -0.357692        -9.7333 
  25   2.0000      -0.345883        -9.4120 
  26   2.0000      -0.330340        -8.9890 
  27   2.0000      -0.278149        -7.5688 
  28   2.0000      -0.262943        -7.1551 
  29   2.0000      -0.262274        -7.1368 
  30   2.0000      -0.257535        -7.0079 
  31   2.0000      -0.242885        -6.6092 
  32   0.0000      -0.126771        -3.4496 
  33   0.0000      -0.067810        -1.8452 
  34   0.0000      -0.043897        -1.1945 
  35   0.0000       0.011376         0.3096 
  36   0.0000       0.047002         1.2790 
  37   0.0000       0.053532         1.4567 
  38   0.0000       0.077584         2.1112 
  39   0.0000       0.081922         2.2292 
  40   0.0000       0.088761         2.4153 
  41   0.0000       0.092240         2.5100 
  42   0.0000       0.119354         3.2478 
*Only the first 10 virtual orbitals were printed.

                    ********************************
                    * MULLIKEN POPULATION ANALYSIS *
                    ********************************

-----------------------
MULLIKEN ATOMIC CHARGES
-----------------------
   0 C :    0.114250
   1 C :   -0.176709
   2 C :   -0.176946
   3 C :   -0.041821
   4 C :   -0.084779
   5 C :   -0.041764
   6 H :    0.124917
   7 H :    0.103259
   8 H :    0.100657
   9 H :    0.103236
  10 H :    0.125031
  11 N :    0.398797
  12 O :   -0.274002
  13 O :   -0.274128
Sum of atomic charges:   -0.0000000

--------------------------------
MULLIKEN REDUCED ORBITAL CHARGES
--------------------------------
  0 C s       :     3.067115  s :     3.067115
      pz      :     1.004387  p :     2.673063
      px      :     0.808364
      py      :     0.860311
      dz2     :     0.006278  d :     0.134217
      dxz     :     0.019151
      dyz     :     0.024174
      dx2y2   :     0.037969
      dxy     :     0.046644
      f0      :     0.001918  f :     0.011355
      f+1     :     0.001015
      f-1     :     0.000719
      f+2     :     0.001070
      f-2     :     0.000941
      f+3     :     0.003932
      f-3     :     0.001760

  1 C s       :     3.261356  s :     3.261356
      pz      :     0.930161  p :     2.813890
      px      :     0.932904
      py      :     0.950825
      dz2     :     0.005872  d :     0.094365
      dxz     :     0.010138
      dyz     :     0.017988
      dx2y2   :     0.026228
      dxy     :     0.034140
      f0      :     0.001483  f :     0.007098
      f+1     :     0.000569
      f-1     :     0.000591
      f+2     :     0.001011
      f-2     :     0.000352
      f+3     :     0.002206
      f-3     :     0.000886

  2 C s       :     3.261456  s :     3.261456
      pz      :     0.930245  p :     2.814107
      px      :     0.921099
      py      :     0.962763
      dz2     :     0.005852  d :     0.094288
      dxz     :     0.022639
      dyz     :     0.005482
      dx2y2   :     0.036310
      dxy     :     0.024005
      f0      :     0.001483  f :     0.007095
      f+1     :     0.000531
      f-1     :     0.000630
      f+2     :     0.000194
      f-2     :     0.001168
      f+3     :     0.002209
      f-3     :     0.000880

  3 C s       :     3.141865  s :     3.141865
      pz      :     0.958034  p :     2.805089
      px      :     0.925371
      py      :     0.921684
      dz2     :     0.004488  d :     0.087860
      dxz     :     0.009095
      dyz     :     0.015813
      dx2y2   :     0.023375
      dxy     :     0.035089
      f0      :     0.001504  f :     0.007007
      f+1     :     0.000597
      f-1     :     0.000543
      f+2     :     0.000876
      f-2     :     0.000354
      f+3     :     0.002292
      f-3     :     0.000841

  4 C s       :     3.173507  s :     3.173507
      pz      :     0.930737  p :     2.814364
      px      :     0.948339
      py      :     0.935288
      dz2     :     0.004524  d :     0.089948
      dxz     :     0.008451
      dyz     :     0.017804
      dx2y2   :     0.025935
      dxy     :     0.033234
      f0      :     0.001468  f :     0.006959
      f+1     :     0.000583
      f-1     :     0.000518
      f+2     :     0.000822
      f-2     :     0.000469
      f+3     :     0.002257
      f-3     :     0.000841

  5 C s       :     3.141668  s :     3.141668
      pz      :     0.957975  p :     2.805237
      px      :     0.911707
      py      :     0.935555
      dz2     :     0.004479  d :     0.087853
      dxz     :     0.019888
      dyz     :     0.005018
      dx2y2   :     0.038360
      dxy     :     0.020110
      f0      :     0.001504  f :     0.007006
      f+1     :     0.000514
      f-1     :     0.000625
      f+2     :     0.000182
      f-2     :     0.001048
      f+3     :     0.002274
      f-3     :     0.000858

  6 H s       :     0.852783  s :     0.852783
      pz      :     0.004575  p :     0.022300
      px      :     0.004011
      py      :     0.013714

  7 H s       :     0.874834  s :     0.874834
      pz      :     0.004930  p :     0.021907
      px      :     0.010507
      py      :     0.006470

  8 H s       :     0.877557  s :     0.877557
      pz      :     0.004741  p :     0.021786
      px      :     0.011054
      py      :     0.005992

  9 H s       :     0.874860  s :     0.874860
      pz      :     0.004928  p :     0.021904
      px      :     0.003928
      py      :     0.013048

 10 H s       :     0.852668  s :     0.852668
      pz      :     0.004574  p :     0.022301
      px      :     0.011472
      py      :     0.006254

 11 N s       :     3.245118  s :     3.245118
      pz      :     1.158797  p :     3.100378
      px      :     1.018407
      py      :     0.923174
      dz2     :     0.006033  d :     0.242889
      dxz     :     0.027652
      dyz     :     0.050925
      dx2y2   :     0.074178
      dxy     :     0.084102
      f0      :     0.001287  f :     0.012817
      f+1     :     0.000756
      f-1     :     0.000940
      f+2     :     0.001642
      f-2     :     0.001184
      f+3     :     0.005155
      f-3     :     0.001853

 12 O s       :     3.868591  s :     3.868591
      pz      :     1.401475  p :     4.360858
      px      :     1.831116
      py      :     1.128268
      dz2     :     0.004954  d :     0.041434
      dxz     :     0.000249
      dyz     :     0.012186
      dx2y2   :     0.015155
      dxy     :     0.008890
      f0      :     0.000283  f :     0.003118
      f+1     :     0.000034
      f-1     :     0.000449
      f+2     :     0.000608
      f-2     :     0.000009
      f+3     :     0.000713
      f-3     :     0.001021

 13 O s       :     3.868683  s :     3.868683
      pz      :     1.401595  p :     4.360901
      px      :     1.361243
      py      :     1.598063
      dz2     :     0.004954  d :     0.041426
      dxz     :     0.008763
      dyz     :     0.003668
      dx2y2   :     0.009958
      dxy     :     0.014082
      f0      :     0.000283  f :     0.003118
      f+1     :     0.000311
      f-1     :     0.000173
      f+2     :     0.000091
      f-2     :     0.000526
      f+3     :     0.000726
      f-3     :     0.001008



                     *******************************
                     * LOEWDIN POPULATION ANALYSIS *
                     *******************************

----------------------
LOEWDIN ATOMIC CHARGES
----------------------
   0 C :   -0.158244
   1 C :   -0.087686
   2 C :   -0.087662
   3 C :   -0.123735
   4 C :   -0.115475
   5 C :   -0.123799
   6 H :    0.156265
   7 H :    0.146983
   8 H :    0.145961
   9 H :    0.147006
  10 H :    0.156289
  11 N :   -0.027218
  12 O :   -0.014284
  13 O :   -0.014404

-------------------------------
LOEWDIN REDUCED ORBITAL CHARGES
-------------------------------
  0 C s       :     2.731824  s :     2.731824
      pz      :     0.908520  p :     2.829616
      px      :     0.897454
      py      :     1.023642
      dz2     :     0.043016  d :     0.532528
      dxz     :     0.059797
      dyz     :     0.075125
      dx2y2   :     0.165714
      dxy     :     0.188875
      f0      :     0.004652  f :     0.064275
      f+1     :     0.006210
      f-1     :     0.004926
      f+2     :     0.007012
      f-2     :     0.006296
      f+3     :     0.022393
      f-3     :     0.012785

  1 C s       :     2.771141  s :     2.771141
      pz      :     0.855638  p :     2.902547
      px      :     1.025562
      py      :     1.021347
      dz2     :     0.025553  d :     0.371618
      dxz     :     0.029850
      dyz     :     0.060459
      dx2y2   :     0.118652
      dxy     :     0.137104
      f0      :     0.003193  f :     0.042380
      f+1     :     0.003426
      f-1     :     0.004160
      f+2     :     0.006921
      f-2     :     0.002415
      f+3     :     0.014341
      f-3     :     0.007925

  2 C s       :     2.771165  s :     2.771165
      pz      :     0.855721  p :     2.902580
      px      :     1.046704
      py      :     1.000155
      dz2     :     0.025542  d :     0.371545
      dxz     :     0.077145
      dyz     :     0.013153
      dx2y2   :     0.150416
      dxy     :     0.105288
      f0      :     0.003192  f :     0.042372
      f+1     :     0.004406
      f-1     :     0.003180
      f+2     :     0.001352
      f-2     :     0.007983
      f+3     :     0.014266
      f-3     :     0.007992

  3 C s       :     2.771165  s :     2.771165
      pz      :     0.879681  p :     2.932257
      px      :     1.007242
      py      :     1.045334
      dz2     :     0.025617  d :     0.378065
      dxz     :     0.027995
      dyz     :     0.054392
      dx2y2   :     0.114909
      dxy     :     0.155152
      f0      :     0.003091  f :     0.042248
      f+1     :     0.003556
      f-1     :     0.004063
      f+2     :     0.005905
      f-2     :     0.002453
      f+3     :     0.015406
      f-3     :     0.007773

  4 C s       :     2.773338  s :     2.773338
      pz      :     0.855259  p :     2.915817
      px      :     1.007938
      py      :     1.052620
      dz2     :     0.025929  d :     0.383895
      dxz     :     0.025735
      dyz     :     0.061579
      dx2y2   :     0.123295
      dxy     :     0.147358
      f0      :     0.003045  f :     0.042425
      f+1     :     0.003440
      f-1     :     0.004106
      f+2     :     0.005531
      f-2     :     0.003218
      f+3     :     0.015373
      f-3     :     0.007711

  5 C s       :     2.771141  s :     2.771141
      pz      :     0.879633  p :     2.932250
      px      :     1.063972
      py      :     0.988645
      dz2     :     0.025622  d :     0.378146
      dxz     :     0.070421
      dyz     :     0.011976
      dx2y2   :     0.167400
      dxy     :     0.102726
      f0      :     0.003093  f :     0.042262
      f+1     :     0.004406
      f-1     :     0.003214
      f+2     :     0.001332
      f-2     :     0.007028
      f+3     :     0.015407
      f-3     :     0.007783

  6 H s       :     0.782335  s :     0.782335
      pz      :     0.012626  p :     0.061400
      px      :     0.011117
      py      :     0.037656

  7 H s       :     0.793992  s :     0.793992
      pz      :     0.013254  p :     0.059025
      px      :     0.028157
      py      :     0.017614

  8 H s       :     0.795273  s :     0.795273
      pz      :     0.012750  p :     0.058767
      px      :     0.029672
      py      :     0.016345

  9 H s       :     0.793987  s :     0.793987
      pz      :     0.013247  p :     0.059007
      px      :     0.010905
      py      :     0.034854

 10 H s       :     0.782300  s :     0.782300
      pz      :     0.012625  p :     0.061411
      px      :     0.030806
      py      :     0.017980

 11 N s       :     2.940342  s :     2.940342
      pz      :     1.058567  p :     3.285281
      px      :     1.125025
      py      :     1.101689
      dz2     :     0.043534  d :     0.735843
      dxz     :     0.070373
      dyz     :     0.127438
      dx2y2   :     0.236168
      dxy     :     0.258330
      f0      :     0.001995  f :     0.065753
      f+1     :     0.003547
      f-1     :     0.005692
      f+2     :     0.009217
      f-2     :     0.006279
      f+3     :     0.028520
      f-3     :     0.010503

 12 O s       :     3.517737  s :     3.517737
      pz      :     1.365384  p :     4.389662
      px      :     1.736269
      py      :     1.288009
      dz2     :     0.013128  d :     0.096496
      dxz     :     0.000239
      dyz     :     0.022705
      dx2y2   :     0.039713
      dxy     :     0.020711
      f0      :     0.000924  f :     0.010388
      f+1     :     0.000168
      f-1     :     0.001855
      f+2     :     0.001593
      f-2     :     0.000013
      f+3     :     0.002393
      f-3     :     0.003442

 13 O s       :     3.517807  s :     3.517807
      pz      :     1.365516  p :     4.389741
      px      :     1.428073
      py      :     1.596153
      dz2     :     0.013127  d :     0.096472
      dxz     :     0.015514
      dyz     :     0.007421
      dx2y2   :     0.023843
      dxy     :     0.036567
      f0      :     0.000923  f :     0.010384
      f+1     :     0.001304
      f-1     :     0.000719
      f+2     :     0.000208
      f-2     :     0.001398
      f+3     :     0.002440
      f-3     :     0.003393



                      *****************************
                      * MAYER POPULATION ANALYSIS *
                      *****************************

  NA   - Mulliken gross atomic population
  ZA   - Total nuclear charge
  QA   - Mulliken gross atomic charge
  VA   - Mayer's total valence
  BVA  - Mayer's bonded valence
  FA   - Mayer's free valence

  ATOM       NA         ZA         QA         VA         BVA        FA
  0 C      5.8857     6.0000     0.1143     3.8789     3.8789    -0.0000
  1 C      6.1767     6.0000    -0.1767     4.0475     4.0475     0.0000
  2 C      6.1769     6.0000    -0.1769     4.0476     4.0476    -0.0000
  3 C      6.0418     6.0000    -0.0418     3.9067     3.9067     0.0000
  4 C      6.0848     6.0000    -0.0848     3.9840     3.9840     0.0000
  5 C      6.0418     6.0000    -0.0418     3.9071     3.9071     0.0000
  6 H      0.8751     1.0000     0.1249     1.0012     1.0012    -0.0000
  7 H      0.8967     1.0000     0.1033     0.9654     0.9654    -0.0000
  8 H      0.8993     1.0000     0.1007     0.9648     0.9648    -0.0000
  9 H      0.8968     1.0000     0.1032     0.9654     0.9654    -0.0000
 10 H      0.8750     1.0000     0.1250     1.0012     1.0012    -0.0000
 11 N      6.6012     7.0000     0.3988     4.2719     4.2719    -0.0000
 12 O      8.2740     8.0000    -0.2740     2.0248     2.0248    -0.0000
 13 O      8.2741     8.0000    -0.2741     2.0247     2.0247    -0.0000

  Mayer bond orders larger than 0.100000
B(  0-C ,  1-C ) :   1.4040 B(  0-C ,  2-C ) :   1.4039 B(  0-C , 11-N ) :   0.9922 
B(  1-C ,  5-C ) :   1.4095 B(  1-C , 10-H ) :   0.9428 B(  2-C ,  3-C ) :   1.4093 
B(  2-C ,  6-H ) :   0.9430 B(  3-C ,  4-C ) :   1.4055 B(  3-C ,  7-H ) :   0.9630 
B(  4-C ,  5-C ) :   1.4057 B(  4-C ,  8-H ) :   0.9626 B(  5-C ,  9-H ) :   0.9630 
B( 11-N , 12-O ) :   1.6353 B( 11-N , 13-O ) :   1.6351 B( 12-O , 13-O ) :   0.2427 


-------
TIMINGS
-------

Total SCF time: 0 days 0 hours 0 min 12 sec 

Total time                  ....      12.753 sec
Sum of individual times     ....      12.077 sec  ( 94.7%)

SCF preparation             ....       0.027 sec  (  0.2%)
Fock matrix formation       ....      11.870 sec  ( 93.1%)
  Startup                   ....       0.002 sec  (  0.0% of F)
  Split-RI-J                ....       3.769 sec  ( 31.8% of F)
  XC integration            ....       8.706 sec  ( 73.3% of F)
    Basis function eval.    ....       2.740 sec  ( 31.5% of XC)
    Density eval.           ....       1.476 sec  ( 17.0% of XC)
    XC-Functional eval.     ....       0.182 sec  (  2.1% of XC)
    XC-Potential eval.      ....       4.104 sec  ( 47.1% of XC)
Diagonalization             ....       0.000 sec  (  0.0%)
Density matrix formation    ....       0.020 sec  (  0.2%)
Total Energy calculation    ....       0.005 sec  (  0.0%)
Population analysis         ....       0.005 sec  (  0.0%)
Orbital Transformation      ....       0.018 sec  (  0.1%)
Orbital Orthonormalization  ....       0.000 sec  (  0.0%)
DIIS solution               ....       0.072 sec  (  0.6%)
SOSCF solution              ....       0.058 sec  (  0.5%)
Finished LeanSCF after  12.8 sec

Maximum memory used throughout the entire LEANSCF-calculation: 32.7 MB

-------------------------   --------------------
FINAL SINGLE POINT ENERGY      -436.816950717179
-------------------------   --------------------

------------------------------------------------------------------------------
                         ORCA SCF GRADIENT CALCULATION
------------------------------------------------------------------------------

Nuc. rep. gradient        (SHARK) ... done (  0.0 sec)
HCore & Overlap gradient  (SHARK) ... done (  0.1 sec)
Split-RIJ-J gradient      (SHARK) ... done (  1.2 sec)
XC gradient                       ... done (  3.2 sec)

------------------
CARTESIAN GRADIENT
------------------

   1   C   :   -0.010698650    0.005789217    0.000000272
   2   C   :    0.002468850    0.003906587   -0.000000104
   3   C   :   -0.001823883   -0.004215529    0.000000005
   4   C   :    0.001374337    0.000518560   -0.000000012
   5   C   :   -0.003498252    0.001811767    0.000000124
   6   C   :    0.000355647   -0.001349263    0.000000037
   7   H   :    0.004221125   -0.000693400   -0.000000072
   8   H   :   -0.001440458   -0.002114457   -0.000000005
   9   H   :   -0.002525105    0.001321380    0.000000001
  10   H   :    0.000905313    0.002315076   -0.000000039
  11   H   :    0.002939588   -0.003117657   -0.000000007
  12   N   :    0.009839237   -0.005193554   -0.000000211
  13   O   :   -0.000491356    0.001577618    0.000000038
  14   O   :   -0.001626393   -0.000556344   -0.000000026

Difference to translation invariance:
           :    0.0000000000   -0.0000000000   -0.0000000000

Difference to rotation invariance:
           :   -0.0000000060   -0.0000000154   -0.0002020490

Norm of the Cartesian gradient     ...    0.0199256227
RMS gradient                       ...    0.0030745903
MAX gradient                       ...    0.0106986498

-------
TIMINGS
-------

Total SCF gradient time     ....        4.554 sec

Densities                   ....       0.000 sec  (  0.0%)
One electron gradient       ....       0.145 sec  (  3.2%)
RI-J Coulomb gradient       ....       1.232 sec  ( 27.1%)
XC gradient                 ....       3.176 sec  ( 69.7%)

Maximum memory used throughout the entire SCFGRAD-calculation: 42.8 MB
------------------------------------------------------------------------------
                         ORCA GEOMETRY RELAXATION STEP
------------------------------------------------------------------------------

Reading the OPT-File                    .... done
Getting information on internals        .... done
Copying old internal coords+grads       .... done
Making the new internal coordinates     .... (2022 redundants) done
Validating the new internal coordinates .... (2022 redundants) done
Calculating the B-matrix                .... done
Calculating the G,G- and P matrices     .... done
Transforming gradient to internals      .... done
Projecting the internal gradient        .... done
Number of atoms                         ....  14
Number of internal coordinates          ....  63
Current Energy                          ....  -436.816950717 Eh
Current gradient norm                   ....     0.019925623 Eh/bohr
Maximum allowed component of the step   ....  0.300
Current trust radius                    ....  0.300
Evaluating the initial hessian          ....  (Almloef) done
Projecting the Hessian                  .... done
Forming the augmented Hessian           .... done
Diagonalizing the augmented Hessian     .... done
Last element of RFO vector              ....  0.999176277
Lowest eigenvalues of augmented Hessian:
 -0.000686291  0.013914178  0.013914178  0.021498299  0.024840978
Length of the computed step             ....  0.040613844
The final length of the internal step   ....  0.040613844
Converting the step to Cartesian space:
 Initial RMS(Int)=    0.0051168634
Transforming coordinates:
 Iter   0:  RMS(Cart)=    0.0087190856 RMS(Int)=    1.5832219881
done
Storing new coordinates                 .... done

                                .--------------------.
          ----------------------|Geometry convergence|-------------------------
          Item                value                   Tolerance       Converged
          ---------------------------------------------------------------------
          RMS gradient        0.0021737130            0.0001000000      NO
          MAX gradient        0.0087763803            0.0003000000      NO
          RMS step            0.0051168634            0.0020000000      NO
          MAX step            0.0208531211            0.0040000000      NO
          -------------------------------------------------------------------------
          ........................................................
          Max(Bonds)      0.0110      Max(Angles)    0.82
          Max(Dihed)        0.00      Max(Improp)    0.00
          ---------------------------------------------------------------------

The optimization has not yet converged - more geometry cycles are needed


    ---------------------------------------------------------------------------
                         Redundant Internal Coordinates
                            (Angstroem and degrees)

        Definition                    Value    dE/dq     Step     New-Value
    ----------------------------------------------------------------------------
     1. B(C   1,C   0)                1.4016  0.000663 -0.0007    1.4008   
     2. B(C   2,C   0)                1.4016  0.000693 -0.0008    1.4008   
     3. B(C   3,C   2)                1.3960 -0.002690  0.0023    1.3983   
     4. B(C   4,C   3)                1.3962 -0.005535  0.0049    1.4011   
     5. B(C   5,C   4)                1.3961 -0.005613  0.0050    1.4011   
     6. B(C   5,C   1)                1.3959 -0.002776  0.0024    1.3983   
     7. B(H   6,C   2)                1.0880 -0.000763  0.0011    1.0891   
     8. B(H   7,C   3)                1.0878 -0.002337  0.0034    1.0912   
     9. B(H   8,C   4)                1.0880 -0.002850  0.0042    1.0922   
    10. B(H   9,C   5)                1.0879 -0.002278  0.0033    1.0912   
    11. B(H  10,C   1)                1.0880 -0.000762  0.0011    1.0891   
    12. B(N  11,C   0)                1.4680 -0.008776  0.0110    1.4790   
    13. B(O  12,N  11)                1.2395  0.001573 -0.0010    1.2386   
    14. B(O  13,N  11)                1.2397  0.001660 -0.0010    1.2386   
    15. A(C   1,C   0,N  11)          119.66  0.001920   -0.24    119.43   
    16. A(C   1,C   0,C   2)          120.61 -0.004166    0.52    121.13   
    17. A(C   2,C   0,N  11)          119.72  0.002246   -0.28    119.44   
    18. A(C   0,C   1,C   5)          119.44  0.001518   -0.24    119.20   
    19. A(C   5,C   1,H  10)          119.19 -0.005097    0.82    120.02   
    20. A(C   0,C   1,H  10)          121.37  0.003579   -0.59    120.78   
    21. A(C   0,C   2,H   6)          121.38  0.003601   -0.59    120.79   
    22. A(C   0,C   2,C   3)          119.43  0.001446   -0.23    119.20   
    23. A(C   3,C   2,H   6)          119.20 -0.005047    0.82    120.02   
    24. A(C   2,C   3,C   4)          120.10 -0.000246    0.06    120.16   
    25. A(C   4,C   3,H   7)          119.91 -0.000941    0.14    120.05   
    26. A(C   2,C   3,H   7)          120.00  0.001188   -0.20    119.79   
    27. A(C   5,C   4,H   8)          119.83 -0.000867    0.10    119.92   
    28. A(C   3,C   4,H   8)          119.84 -0.000838    0.09    119.93   
    29. A(C   3,C   4,C   5)          120.33  0.001706   -0.19    120.15   
    30. A(C   4,C   5,H   9)          119.93 -0.000899    0.13    120.06   
    31. A(C   1,C   5,H   9)          119.98  0.001156   -0.20    119.78   
    32. A(C   1,C   5,C   4)          120.09 -0.000258    0.07    120.16   
    33. A(O  12,N  11,O  13)          124.49 -0.000744    0.09    124.58   
    34. A(C   0,N  11,O  13)          117.75  0.000318   -0.04    117.71   
    35. A(C   0,N  11,O  12)          117.76  0.000427   -0.05    117.71   
    36. D(H  10,C   1,C   0,C   2)    180.00 -0.000000    0.00    180.00   
    37. D(C   5,C   1,C   0,C   2)      0.00 -0.000000    0.00      0.00   
    38. D(C   5,C   1,C   0,N  11)    180.00 -0.000000    0.00    180.00   
    39. D(H  10,C   1,C   0,N  11)     -0.00 -0.000000    0.00     -0.00   
    40. D(C   3,C   2,C   0,C   1)      0.00  0.000000   -0.00      0.00   
    41. D(C   3,C   2,C   0,N  11)   -180.00  0.000000   -0.00   -180.00   
    42. D(H   6,C   2,C   0,N  11)      0.00  0.000000   -0.00      0.00   
    43. D(H   6,C   2,C   0,C   1)    180.00 -0.000000    0.00    180.00   
    44. D(H   7,C   3,C   2,H   6)     -0.00 -0.000000    0.00     -0.00   
    45. D(H   7,C   3,C   2,C   0)    180.00 -0.000000    0.00    180.00   
    46. D(C   4,C   3,C   2,H   6)   -180.00  0.000000   -0.00   -180.00   
    47. D(C   4,C   3,C   2,C   0)     -0.00 -0.000000    0.00     -0.00   
    48. D(H   8,C   4,C   3,C   2)    180.00 -0.000000    0.00    180.00   
    49. D(C   5,C   4,C   3,H   7)   -180.00  0.000000   -0.00   -180.00   
    50. D(C   5,C   4,C   3,C   2)     -0.00 -0.000000    0.00      0.00   
    51. D(H   8,C   4,C   3,H   7)     -0.00 -0.000000    0.00     -0.00   
    52. D(H   9,C   5,C   4,H   8)      0.00  0.000000   -0.00      0.00   
    53. D(C   1,C   5,C   4,H   8)   -180.00  0.000000   -0.00   -180.00   
    54. D(C   1,C   5,C   4,C   3)      0.00  0.000000   -0.00      0.00   
    55. D(H   9,C   5,C   1,H  10)      0.00  0.000000   -0.00      0.00   
    56. D(H   9,C   5,C   1,C   0)   -180.00  0.000000   -0.00   -180.00   
    57. D(H   9,C   5,C   4,C   3)    180.00 -0.000000    0.00    180.00   
    58. D(C   4,C   5,C   1,H  10)    180.00  0.000000   -0.00    180.00   
    59. D(C   4,C   5,C   1,C   0)     -0.00 -0.000000    0.00     -0.00   
    60. D(O  13,N  11,C   0,C   2)    180.00 -0.000000    0.00    180.00   
    61. D(O  13,N  11,C   0,C   1)     -0.00 -0.000000    0.00     -0.00   
    62. D(O  12,N  11,C   0,C   2)     -0.00 -0.000000    0.00     -0.00   
    63. D(O  12,N  11,C   0,C   1)    180.00  0.000000    0.00    180.00   
    ----------------------------------------------------------------------------

Geometry step timings:
Preparation and reading OPT file:      0.000 s ( 1.555 %)
Internal coordinates            :      0.000 s ( 2.799 %)
B/P matrices and projection     :      0.000 s (21.229 %)
Hessian update/contruction      :      0.000 s (21.695 %)
Making the step                 :      0.000 s (24.883 %)
Converting the step to Cartesian:      0.000 s ( 1.944 %)
Storing new data                :      0.000 s ( 3.810 %)
Checking convergence            :      0.000 s ( 2.877 %)
Final printing                  :      0.000 s (19.207 %)
Total time                      :      0.001 s

Time for energy+gradient        :     18.510 s
Time for complete geometry iter :     18.573 s

         *************************************************************
         *                GEOMETRY OPTIMIZATION CYCLE   2            *
         *************************************************************
---------------------------------
CARTESIAN COORDINATES (ANGSTROEM)
---------------------------------
  C     -3.095854    1.093933   -0.000099
  C     -3.060244   -0.306438   -0.000106
  C     -1.915640    1.848445   -0.000115
  C     -0.683397    1.187429   -0.000138
  C     -0.635725   -0.212896   -0.000145
  C     -1.822674   -0.957385   -0.000129
  H     -1.949934    2.937011   -0.000109
  H      0.242013    1.765609   -0.000151
  H      0.328789   -0.725352   -0.000163
  H     -1.783949   -2.047888   -0.000134
  H     -3.981441   -0.887406   -0.000093
  N     -4.402116    1.787629   -0.000076
  O     -4.396442    3.026205   -0.000058
  O     -5.425167    1.089343   -0.000074

----------------------------
CARTESIAN COORDINATES (A.U.)
----------------------------
  NO LB      ZA    FRAG     MASS         X           Y           Z
   0 C     6.0000    0    12.011   -5.850316    2.067233   -0.000188
   1 C     6.0000    0    12.011   -5.783024   -0.579084   -0.000200
   2 C     6.0000    0    12.011   -3.620035    3.493054   -0.000217
   3 C     6.0000    0    12.011   -1.291433    2.243915   -0.000261
   4 C     6.0000    0    12.011   -1.201346   -0.402315   -0.000274
   5 C     6.0000    0    12.011   -3.444355   -1.809196   -0.000243
   6 H     1.0000    0     1.008   -3.684841    5.550147   -0.000207
   7 H     1.0000    0     1.008    0.457338    3.336517   -0.000286
   8 H     1.0000    0     1.008    0.621321   -1.370716   -0.000309
   9 H     1.0000    0     1.008   -3.371175   -3.869948   -0.000253
  10 H     1.0000    0     1.008   -7.523833   -1.676954   -0.000177
  11 N     7.0000    0    14.007   -8.318794    3.378129   -0.000143
  12 O     8.0000    0    15.999   -8.308071    5.718698   -0.000110
  13 O     8.0000    0    15.999  -10.252081    2.058560   -0.000139

--------------------------------
INTERNAL COORDINATES (ANGSTROEM)
--------------------------------
 C      0   0   0     0.000000000000     0.00000000     0.00000000
 C      1   0   0     1.400823686843     0.00000000     0.00000000
 C      1   2   0     1.400782775309   121.13420661     0.00000000
 C      3   1   2     1.398343853991   119.19858767     0.00000000
 C      4   3   1     1.401136219731   120.16037113     0.00000000
 C      2   1   3     1.398324706919   119.20046782     0.00000000
 H      3   1   2     1.089106321944   120.78641320   180.00001597
 H      4   3   1     1.091180624780   119.79299514   179.99997150
 H      5   4   3     1.092198542105   119.93194143   179.99999222
 H      6   2   1     1.091190265305   119.77765051   179.99997690
 H      2   1   3     1.089094239180   120.78161242   179.99998193
 N      1   2   3     1.479032388486   119.42734156   179.99998038
 O     12   1   2     1.238588966837   117.70821735   179.99935650
 O     12   1   2     1.238643028005   117.71369305     0.00000000

---------------------------
INTERNAL COORDINATES (A.U.)
---------------------------
 C      0   0   0     0.000000000000     0.00000000     0.00000000
 C      1   0   0     2.647173130043     0.00000000     0.00000000
 C      1   2   0     2.647095818449   121.13420661     0.00000000
 C      3   1   2     2.642486925095   119.19858767     0.00000000
 C      4   3   1     2.647763731609   120.16037113     0.00000000
 C      2   1   3     2.642450742372   119.20046782     0.00000000
 H      3   1   2     2.058112679196   120.78641320   180.00001597
 H      4   3   1     2.062032543476   119.79299514   179.99997150
 H      5   4   3     2.063956128446   119.93194143   179.99999222
 H      6   2   1     2.062050761427   119.77765051   179.99997690
 H      2   1   3     2.058089846082   120.78161242   179.99998193
 N      1   2   3     2.794966157438   119.42734156   179.99998038
 O     12   1   2     2.340593939818   117.70821735   179.99935650
 O     12   1   2     2.340696100620   117.71369305     0.00000000

------------------------------------------------------------------------------
                   ___                                                        
                  /   \      - P O W E R E D   B Y -                         
                 /     \                                                     
                 |  |  |   _    _      __       _____    __    __             
                 |  |  |  | |  | |    /  \     |  _  \  |  |  /  |          
                  \  \/   | |  | |   /    \    | | | |  |  | /  /          
                 / \  \   | |__| |  /  /\  \   | |_| |  |  |/  /          
                |  |  |   |  __  | /  /__\  \  |    /   |      \           
                |  |  |   | |  | | |   __   |  |    \   |  |\   \          
                \     /   | |  | | |  |  |  |  | |\  \  |  | \   \       
                 \___/    |_|  |_| |__|  |__|  |_| \__\ |__|  \__/        
                                                                              
                      - O R C A' S   B I G   F R I E N D -                    
                                      &                                       
                       - I N T E G R A L  F E E D E R -                       
                                                                              
 v1 FN, 2020, v2 2021, v3 2022-2024                                           
------------------------------------------------------------------------------


----------------------
SHARK INTEGRAL PACKAGE
----------------------

Number of atoms                             ...     14
Number of basis functions                   ...    309
Number of shells                            ...    119
Maximum angular momentum                    ...      3
Integral batch strategy                     ... SHARK/LIBINT Hybrid
RI-J (if used) integral strategy            ... SPLIT-RIJ (Revised 2003 algorithm where possible)
Printlevel                                  ...      1
Contraction scheme used                     ... SEGMENTED contraction
Prescreening option                         ... SCHWARTZ
   Thresh                                   ... 2.500e-11
   Tcut                                     ... 2.500e-12
   Tpresel                                  ... 2.500e-12 
Coulomb Range Separation                    ... NOT USED
Exchange Range Separation                   ... NOT USED
Multipole approximations                    ... NOT USED
Finite Nucleus Model                        ... NOT USED
CABS basis                                  ... NOT available
Auxiliary Coulomb fitting basis             ... AVAILABLE
   # of basis functions in Aux-J            ...    496
   # of shells in Aux-J                     ...    160
   Maximum angular momentum in Aux-J        ...      4
Auxiliary J/K fitting basis                 ... NOT available
Auxiliary Correlation fitting basis         ... NOT available
Auxiliary 'external' fitting basis          ... NOT available

Checking pre-screening integrals            ... done (  0.0 sec) Dimension = 119
   => SHARK Basis and OBASIS are compatible. Storing Pre-screening
Shell pair information
Shell pair cut-off parameter TPreSel        ...   2.5e-12
Total number of shell pairs                 ...      7140
Shell pairs after pre-screening             ...      6447
Total number of primitive shell pairs       ...     22368
Primitive shell pairs kept                  ...     15017
          la=0 lb=0:   1561 shell pairs
          la=1 lb=0:   1765 shell pairs
          la=1 lb=1:    506 shell pairs
          la=2 lb=0:    975 shell pairs
          la=2 lb=1:    546 shell pairs
          la=2 lb=2:    160 shell pairs
          la=3 lb=0:    473 shell pairs
          la=3 lb=1:    271 shell pairs
          la=3 lb=2:    149 shell pairs
          la=3 lb=3:     41 shell pairs

Checking whether 4 symmetric matrices of dimension 309 fit in memory
[...]
      px      :     0.910432
      py      :     0.930341
      dz2     :     0.004508  d :     0.087105
      dxz     :     0.019979
      dyz     :     0.005002
      dx2y2   :     0.037515
      dxy     :     0.020102
      f0      :     0.001492  f :     0.006962
      f+1     :     0.000523
      f-1     :     0.000622
      f+2     :     0.000184
      f-2     :     0.001046
      f+3     :     0.002225
      f-3     :     0.000870

  6 H s       :     0.849824  s :     0.849824
      pz      :     0.004550  p :     0.022427
      px      :     0.004157
      py      :     0.013720

  7 H s       :     0.875793  s :     0.875793
      pz      :     0.004885  p :     0.021818
      px      :     0.010448
      py      :     0.006485

  8 H s       :     0.876811  s :     0.876811
      pz      :     0.004730  p :     0.021689
      px      :     0.011026
      py      :     0.005933

  9 H s       :     0.875798  s :     0.875798
      pz      :     0.004885  p :     0.021819
      px      :     0.003895
      py      :     0.013039

 10 H s       :     0.849773  s :     0.849773
      pz      :     0.004550  p :     0.022422
      px      :     0.011969
      py      :     0.005903

 11 N s       :     3.251785  s :     3.251785
      pz      :     1.154503  p :     3.090724
      px      :     1.017424
      py      :     0.918797
      dz2     :     0.005928  d :     0.241660
      dxz     :     0.027059
      dyz     :     0.050940
      dx2y2   :     0.073711
      dxy     :     0.084021
      f0      :     0.001279  f :     0.012820
      f+1     :     0.000753
      f-1     :     0.000939
      f+2     :     0.001653
      f-2     :     0.001185
      f+3     :     0.005164
      f-3     :     0.001846

 12 O s       :     3.868129  s :     3.868129
      pz      :     1.401041  p :     4.359316
      px      :     1.827795
      py      :     1.130480
      dz2     :     0.004966  d :     0.041798
      dxz     :     0.000243
      dyz     :     0.012294
      dx2y2   :     0.015219
      dxy     :     0.009077
      f0      :     0.000287  f :     0.003144
      f+1     :     0.000035
      f-1     :     0.000450
      f+2     :     0.000615
      f-2     :     0.000009
      f+3     :     0.000727
      f-3     :     0.001021

 13 O s       :     3.868192  s :     3.868192
      pz      :     1.401051  p :     4.359330
      px      :     1.363792
      py      :     1.594487
      dz2     :     0.004966  d :     0.041795
      dxz     :     0.008799
      dyz     :     0.003736
      dx2y2   :     0.010155
      dxy     :     0.014138
      f0      :     0.000287  f :     0.003144
      f+1     :     0.000311
      f-1     :     0.000174
      f+2     :     0.000089
      f-2     :     0.000535
      f+3     :     0.000740
      f-3     :     0.001008



                     *******************************
                     * LOEWDIN POPULATION ANALYSIS *
                     *******************************

----------------------
LOEWDIN ATOMIC CHARGES
----------------------
   0 C :   -0.151697
   1 C :   -0.092088
   2 C :   -0.092083
   3 C :   -0.122732
   4 C :   -0.115178
   5 C :   -0.122740
   6 H :    0.156279
   7 H :    0.147127
   8 H :    0.146271
   9 H :    0.147129
  10 H :    0.156286
  11 N :   -0.030532
  12 O :   -0.013001
  13 O :   -0.013042

-------------------------------
LOEWDIN REDUCED ORBITAL CHARGES
-------------------------------
  0 C s       :     2.737204  s :     2.737204
      pz      :     0.908832  p :     2.825236
      px      :     0.891127
      py      :     1.025277
      dz2     :     0.042880  d :     0.526678
      dxz     :     0.056847
      dyz     :     0.075540
      dx2y2   :     0.163153
      dxy     :     0.188258
      f0      :     0.004463  f :     0.062578
      f+1     :     0.006020
      f-1     :     0.004922
      f+2     :     0.006771
      f-2     :     0.005960
      f+3     :     0.021846
      f-3     :     0.012596

  1 C s       :     2.772533  s :     2.772533
      pz      :     0.858100  p :     2.907141
      px      :     1.023669
      py      :     1.025372
      dz2     :     0.025434  d :     0.370106
      dxz     :     0.029507
      dyz     :     0.060195
      dx2y2   :     0.121365
      dxy     :     0.133604
      f0      :     0.003196  f :     0.042307
      f+1     :     0.003486
      f-1     :     0.004118
      f+2     :     0.006920
      f-2     :     0.002417
      f+3     :     0.014215
      f-3     :     0.007955

  2 C s       :     2.772527  s :     2.772527
      pz      :     0.858096  p :     2.907133
      px      :     1.047539
      py      :     1.001499
      dz2     :     0.025435  d :     0.370115
      dxz     :     0.076313
      dyz     :     0.013392
      dx2y2   :     0.148876
      dxy     :     0.106099
      f0      :     0.003196  f :     0.042308
      f+1     :     0.004388
      f-1     :     0.003215
      f+2     :     0.001286
      f-2     :     0.008052
      f+3     :     0.014172
      f-3     :     0.007998

  3 C s       :     2.774368  s :     2.774368
      pz      :     0.880269  p :     2.931277
      px      :     1.007398
      py      :     1.043610
      dz2     :     0.025378  d :     0.375522
      dxz     :     0.028096
      dyz     :     0.054048
      dx2y2   :     0.114143
      dxy     :     0.153857
      f0      :     0.003041  f :     0.041565
      f+1     :     0.003520
      f-1     :     0.004048
      f+2     :     0.005847
      f-2     :     0.002420
      f+3     :     0.015047
      f-3     :     0.007641

  4 C s       :     2.777239  s :     2.777239
      pz      :     0.860532  p :     2.918503
      px      :     1.007544
      py      :     1.050427
      dz2     :     0.025484  d :     0.377993
      dxz     :     0.025289
      dyz     :     0.060442
      dx2y2   :     0.121595
      dxy     :     0.145183
      f0      :     0.002980  f :     0.041442
      f+1     :     0.003415
      f-1     :     0.004075
      f+2     :     0.005402
      f-2     :     0.003141
      f+3     :     0.014877
      f-3     :     0.007552

  5 C s       :     2.774362  s :     2.774362
      pz      :     0.880269  p :     2.931272
      px      :     1.062268
      py      :     0.988734
      dz2     :     0.025379  d :     0.375540
      dxz     :     0.070318
      dyz     :     0.011830
      dx2y2   :     0.165995
      dxy     :     0.102017
      f0      :     0.003041  f :     0.041566
      f+1     :     0.004385
      f-1     :     0.003184
      f+2     :     0.001309
      f-2     :     0.006959
      f+3     :     0.015033
      f-3     :     0.007655

  6 H s       :     0.781937  s :     0.781937
      pz      :     0.012582  p :     0.061783
      px      :     0.011438
      py      :     0.037763

  7 H s       :     0.794273  s :     0.794273
      pz      :     0.013067  p :     0.058600
      px      :     0.027909
      py      :     0.017624

  8 H s       :     0.795308  s :     0.795308
      pz      :     0.012670  p :     0.058422
      px      :     0.029597
      py      :     0.016155

  9 H s       :     0.794272  s :     0.794272
      pz      :     0.013067  p :     0.058599
      px      :     0.010731
      py      :     0.034801

 10 H s       :     0.781931  s :     0.781931
      pz      :     0.012582  p :     0.061783
      px      :     0.032315
      py      :     0.016886

 11 N s       :     2.946993  s :     2.946993
      pz      :     1.057700  p :     3.283639
      px      :     1.123170
      py      :     1.102769
      dz2     :     0.043548  d :     0.734072
      dxz     :     0.068267
      dyz     :     0.127969
      dx2y2   :     0.235516
      dxy     :     0.258771
      f0      :     0.002039  f :     0.065828
      f+1     :     0.003515
      f-1     :     0.005742
      f+2     :     0.009241
      f-2     :     0.006172
      f+3     :     0.028556
      f-3     :     0.010564

 12 O s       :     3.515849  s :     3.515849
      pz      :     1.364433  p :     4.389226
      px      :     1.732659
      py      :     1.292134
      dz2     :     0.013194  d :     0.097418
      dxz     :     0.000236
      dyz     :     0.022924
      dx2y2   :     0.039950
      dxy     :     0.021114
      f0      :     0.000937  f :     0.010508
      f+1     :     0.000171
      f-1     :     0.001867
      f+2     :     0.001614
      f-2     :     0.000014
      f+3     :     0.002446
      f-3     :     0.003459

 13 O s       :     3.515877  s :     3.515877
      pz      :     1.364446  p :     4.389248
      px      :     1.431145
      py      :     1.593656
      dz2     :     0.013194  d :     0.097411
      dxz     :     0.015596
      dyz     :     0.007561
      dx2y2   :     0.024299
      dxy     :     0.036762
      f0      :     0.000937  f :     0.010507
      f+1     :     0.001310
      f-1     :     0.000728
      f+2     :     0.000203
      f-2     :     0.001425
      f+3     :     0.002491
      f-3     :     0.003414



                      *****************************
                      * MAYER POPULATION ANALYSIS *
                      *****************************

  NA   - Mulliken gross atomic population
  ZA   - Total nuclear charge
  QA   - Mulliken gross atomic charge
  VA   - Mayer's total valence
  BVA  - Mayer's bonded valence
  FA   - Mayer's free valence

  ATOM       NA         ZA         QA         VA         BVA        FA
  0 C      5.8943     6.0000     0.1057     3.9013     3.9013    -0.0000
  1 C      6.1781     6.0000    -0.1781     4.0408     4.0408    -0.0000
  2 C      6.1780     6.0000    -0.1780     4.0408     4.0408    -0.0000
  3 C      6.0424     6.0000    -0.0424     3.8957     3.8957     0.0000
  4 C      6.0849     6.0000    -0.0849     3.9762     3.9762     0.0000
  5 C      6.0423     6.0000    -0.0423     3.8959     3.8959     0.0000
  6 H      0.8723     1.0000     0.1277     1.0022     1.0022    -0.0000
  7 H      0.8976     1.0000     0.1024     0.9663     0.9663    -0.0000
  8 H      0.8985     1.0000     0.1015     0.9650     0.9650    -0.0000
  9 H      0.8976     1.0000     0.1024     0.9663     0.9663     0.0000
 10 H      0.8722     1.0000     0.1278     1.0021     1.0021    -0.0000
 11 N      6.5970     7.0000     0.4030     4.2680     4.2680    -0.0000
 12 O      8.2724     8.0000    -0.2724     2.0287     2.0287     0.0000
 13 O      8.2725     8.0000    -0.2725     2.0286     2.0286    -0.0000

  Mayer bond orders larger than 0.100000
B(  0-C ,  1-C ) :   1.4183 B(  0-C ,  2-C ) :   1.4183 B(  0-C , 11-N ) :   0.9756 
B(  1-C ,  5-C ) :   1.4032 B(  1-C , 10-H ) :   0.9379 B(  2-C ,  3-C ) :   1.4032 
B(  2-C ,  6-H ) :   0.9379 B(  3-C ,  4-C ) :   1.4010 B(  3-C ,  7-H ) :   0.9649 
B(  4-C ,  5-C ) :   1.4012 B(  4-C ,  8-H ) :   0.9633 B(  5-C ,  9-H ) :   0.9649 
B( 11-N , 12-O ) :   1.6416 B( 11-N , 13-O ) :   1.6414 B( 12-O , 13-O ) :   0.2427 


-------
TIMINGS
-------

Total SCF time: 0 days 0 hours 0 min 5 sec 

Total time                  ....       5.339 sec
Sum of individual times     ....       4.781 sec  ( 89.5%)

SCF preparation             ....       0.026 sec  (  0.5%)
Fock matrix formation       ....       4.693 sec  ( 87.9%)
  Startup                   ....       0.001 sec  (  0.0% of F)
  Split-RI-J                ....       1.668 sec  ( 35.5% of F)
  XC integration            ....       3.553 sec  ( 75.7% of F)
    XC Preparation          ....       0.000 sec  (  0.0% of XC)
    Basis function eval.    ....       1.205 sec  ( 33.9% of XC)
    Density eval.           ....       0.671 sec  ( 18.9% of XC)
    XC-Functional eval.     ....       0.085 sec  (  2.4% of XC)
    XC-Potential eval.      ....       1.521 sec  ( 42.8% of XC)
Diagonalization             ....       0.000 sec  (  0.0%)
Density matrix formation    ....       0.005 sec  (  0.1%)
Total Energy calculation    ....       0.005 sec  (  0.1%)
Population analysis         ....       0.016 sec  (  0.3%)
Orbital Transformation      ....       0.006 sec  (  0.1%)
Orbital Orthonormalization  ....       0.000 sec  (  0.0%)
DIIS solution               ....       0.007 sec  (  0.1%)
SOSCF solution              ....       0.023 sec  (  0.4%)
Finished LeanSCF after   5.4 sec

Maximum memory used throughout the entire LEANSCF-calculation: 33.0 MB

-------------------------   --------------------
FINAL SINGLE POINT ENERGY      -436.817744096219
-------------------------   --------------------

                                *** OPTIMIZATION RUN DONE ***


------------------------------------------------------------------------------
                              ORCA PROPERTY CALCULATIONS
------------------------------------------------------------------------------

GBWName                                 ... nitrobenzene.gbw
Number of atoms                         ...     14
Number of basis functions               ...    309
Max core memory                         ...  16384 MB

Electric properties:
Dipole moment                           ... YES
Quadrupole moment                       ...  NO
Static polarizability (Dipole/Dipole)   ...  NO
Static polarizability (Dipole/Quad.)    ...  NO
Static polarizability (Quad./Quad.)     ...  NO
Static polarizability (Velocity)        ...  NO
Static hyperpolarizability              ...  NO

Atomic electric properties:
Dipole moment                           ...  NO
Quadrupole moment                       ...  NO
Static polarizability                   ...  NO

Choice of electric origin               ... Center of mass
Position of electric origin             ...    -5.530156     1.897029    -0.000193

General magnetic properties:
Magnetizability                         ...  NO

EPR properties:
g-Tensor (aka g-matrix)                 ...  NO
Zero-Field splitting spin-orbit         ...  NO
Zero-field splitting spin-spin          ...  NO
Hyperfine couplings                     ...  NO (   0 nuclei)
Quadrupole couplings                    ...  NO (   0 nuclei)
Contact density                         ...  NO (   0 nuclei)

NMR properties:
Chemical shifts                         ...  NO (   0 nuclei)
Spin-rotation constants                 ...  NO (   0 nuclei)
Spin-spin couplings                     ...  NO (   0 nuclei,    0 pairs)

Choice of magnetic origin               ... GIAO
Position of magnetic origin             ...     0.000000     0.000000     0.000000

Properties with geometric perturbations:
SCF Hessian                             ...  NO
IR spectrum                             ...  NO
VCD spectrum                            ...  NO
X-ray spectroscopy properties:
SCF XES/XAS/RIXS spectra                ...  NO

SCF SOC stabilization energy            ...  NO
Diagonal Born-Oppenheimer correction    ...  NO

-------------
DIPOLE MOMENT
-------------

Method             : SCF
Type of density    : Electron Density
Multiplicity       :   1
Irrep              :   0
Energy             :  -436.8177440962185756 Eh
Basis              : AO
                                X                 Y                 Z
Electronic contribution:     -5.381061854       2.858493952       0.000134685
Nuclear contribution   :      6.925236121      -3.678696058      -0.000143755
                        -----------------------------------------
Total Dipole Moment    :      1.544174267      -0.820202106      -0.000009069
                        -----------------------------------------
Magnitude (a.u.)       :      1.748486677
Magnitude (Debye)      :      4.444299939



--------------------
Rotational spectrum 
--------------------
 
Rotational constants in cm-1:             0.130948             0.042147             0.031885 
Rotational constants in MHz :          3925.721000          1263.536502           955.876978 

Dipole components along the rotational axes: 
x,y,z [a.u.] :    -1.748487     0.000041     0.000014 
x,y,z [Debye]:    -4.444300     0.000104     0.000036 

 

Dipole moment calculation done in   0.0 sec 

Maximum memory used throughout the entire PROP-calculation: 24.9 MB

--------------------------------
SUGGESTED CITATIONS FOR THIS RUN
--------------------------------

Below you find a list of papers that are relevant to this ORCA run
We neither can nor want to force you to cite these papers, but we appreciate if you do
You receive ORCA, which is the product of decades of hard work by many enthusiastic individuals, for free
The only thing we kindly ask in return is that you cite our papers,
We deeply appreciate it, if you show your appreciation for ORCA by not just citing the generic ORCA reference.

Please note that relegating all ORCA citations to the supporting information does *not* help us.
SI sections are not indexed - citations you put there will not count into any citation statistics
But we need these citations in order to attract the funding resources that allow us to do what we are doing

Therefore, if you are a happy ORCA user, please consider citing a few of the papers listed below in the main body of your paper

In addition to the list printed below, the program has created the file nitrobenzene.bibtex that contains the list in bibtex format
You can import this file easily into all common literature databanks and citation aid programs


List of essential papers. We consider these as the minimum necessary citations

  1. Neese, F.
     Software update: the ORCA program system, version 6.0
     WIRES Comput. Molec. Sci. 2025 15(1), e70019
     doi.org/10.1002/wcms.7019

List of papers to cite with high priority. The work reported in these papers was absolutely
necessary for this run to complete.
Our perspective: the developers of density functionals and basis sets usually get cited in chemistry papers
Good! But without the algorithms to do something with them, the functionals or basis sets would not do anything.
Hence, in our opinion, the algorithm design and method developments papers are equally worthy of getting cited

  1. Neese, F.
     An improvement of the resolution of the identity approximation for the formation of the Coulomb matrix
     J. Comp. Chem. 2003 24(14), 1740-1747
     doi.org/10.1002/jcc.10318
  2. Neese, F.
     The SHARK Integral Generation and Digestion System
     J. Comp. Chem. 2022 44(3), 381
     doi.org/10.1002/jcc.26942

List of suggested additional citations. These are papers that are important in the 'surrounding' of 
of this run, or papers that preceded the highly important papers. If you like your results we are grateful for a citation.

  1. Neese, F.
     The ORCA program system
     WIRES Comput. Molec. Sci. 2012 2(1), 73-78
     doi.org/10.1002/wcms.81
  2. Neese, F.
     Software update: the ORCA program system, version 4.0
     WIRES Comput. Molec. Sci. 2018 8(1), 1-6
     doi.org/10.1002/wcms.1327
  3. Neese, F.; Wennmohs, F.; Becker, U.; Riplinger, C.
     The ORCA quantum chemistry program package
     J. Chem. Phys. 2020 152(22), 224108
     doi.org/10.1063/5.0004608
  4. Neese, F.
     Software update: The ORCA program system—Version 5.0
     WIRES Comput. Molec. Sci. 2022 12(1), e1606
     doi.org/10.1002/wcms.1606

List of optional additional citations

  1. Neese, F.
     Approximate second-order SCF convergence for spin unrestricted wavefunctions
     Chem. Phys. Lett. 2000 325(1-3), 93-98
     doi.org/10.1016/s0009-2614(00)00662-x

Timings for individual modules:

Sum of individual times          ...       96.300 sec (=   1.605 min)
Startup calculation              ...        3.636 sec (=   0.061 min)   3.8 %
SCF iterations                   ...       60.153 sec (=   1.003 min)  62.5 %
Property calculations            ...        0.097 sec (=   0.002 min)   0.1 %
SCF Gradient evaluation          ...       32.390 sec (=   0.540 min)  33.6 %
Geometry relaxation              ...        0.024 sec (=   0.000 min)   0.0 %
                             ****ORCA TERMINATED NORMALLY****
TOTAL RUN TIME: 0 days 0 hours 1 minutes 36 seconds 718 msec
